LAMMPS (11 Jun 2012)
# Initialization
atom_style      full
units           real
variable        T equal 300
variable        dt equal 1.0
variable        seed equal 123458
variable        radius equal 0.5
variable        sizet equal 4
variable        sizeb equal -4
variable        p equal 20000    # correlation length
variable        s equal 5        # sample interval
variable        d equal $p*$s    # dump interval
variable        d equal 20000*$s    variable        d equal 20000*5    
# convert from LAMMPS real units to SI
variable        kB equal 1.3806504e-23    # [J/K] Boltzmann
variable        kCal2J equal 4186.0/6.02214e23
variable        A2m equal 1.0e-10
variable        fs2s equal 1.0e-15
variable        convert equal ${kCal2J}*${kCal2J}/${fs2s}/${A2m}
variable        convert equal 6.9510174124148567155e-21*${kCal2J}/${fs2s}/${A2m}
variable        convert equal 6.9510174124148567155e-21*6.9510174124148567155e-21/${fs2s}/${A2m}
variable        convert equal 6.9510174124148567155e-21*6.9510174124148567155e-21/1.0000000000000000777e-15/${A2m}
variable        convert equal 6.9510174124148567155e-21*6.9510174124148567155e-21/1.0000000000000000777e-15/1.0000000000000000364e-10
variable        b_eq equal 10.0/3.0

# setup problem
dimension       3
boundary        p p p
neighbor        2    bin
pair_style      lj/cut 10.0
bond_style      morse
read_data       lammps.data
  9 = max bonds/atom
  orthogonal box = (0 0 0) to (80 80 80)
  2 by 2 by 2 MPI processor grid
  7168 atoms
  33696 bonds
  10 = max # of 1-2 neighbors
  86 = max # of 1-3 neighbors
  824 = max # of 1-4 neighbors
  164 = max # of special neighbors
pair_coeff      1 1 0.000 3.500
pair_coeff      2 2 0.000 3.500
pair_coeff      1 2 0.105 3.500
bond_coeff      1 10 1.8 ${b_eq}
bond_coeff      1 10 1.8 3.3333333333333334814
bond_coeff      2 5 0.805 7.4536
bond_coeff      3 10 1.8 ${b_eq}
bond_coeff      3 10 1.8 3.3333333333333334814
bond_coeff      4 5 0.805 7.4536
velocity        all create $T ${seed} mom yes rot yes dist gaussian
velocity        all create 300 ${seed} mom yes rot yes dist gaussian
velocity        all create 300 123458 mom yes rot yes dist gaussian
timestep        ${dt}
timestep        1
thermo          100
dump            T1 all cfg 600000 *.cfg id type xs ys zs
dump            T2 all xyz 10000 traj.xyz
#dump_modify    1 element Cu
# −−−−−−−−−−−−− Equilibration and thermalisation −−−−−−−−−−−−−−−−
fix             NVT all nvt temp $T $T 10
fix             NVT all nvt temp 300 $T 10
fix             NVT all nvt temp 300 300 10
run             300000
Memory usage per processor = 11.5453 Mbytes
Step Temp E_pair E_mol TotEng Press 
       0          300   -906.89526 0.00012694983    5502.1446    343.62551 
     100    245.56434   -934.26743    7026.2614    11338.099    2137.2225 
     200    296.23074   -991.44279    9881.2985    15218.371    1180.9671 
     300    302.32844    -990.6022    8366.5254    13834.706    543.84633 
     400    298.85015   -970.43758    6441.9366    11855.974    837.02188 
     500    300.76388   -954.91754    5741.2833    11211.724    1271.9565 
     600    300.72761   -952.74903    5588.2953     11060.13    1165.0607 
     700    298.40273   -965.04218    6482.9213    11892.796    1086.9132 
     800    298.50956   -976.92315    7207.8918    12608.167    1155.4818 
     900    301.77147   -981.67988    7101.5714    12566.776    1118.4993 
    1000    298.07225   -977.01769    6600.2853    11991.124    1134.3111 
    1100    305.83126   -976.12502    6326.4107    11883.901    1299.8784 
    1200    299.69818   -978.17686    6375.1582    11799.573    1214.9083 
    1300    295.86119   -981.01859    6304.3291    11643.931    1025.8616 
    1400     298.7036   -988.35861    6640.3987    12033.384    1127.2649 
    1500    303.79815   -992.37467    6941.4385    12439.245    1236.0573 
    1600    301.04616   -996.24397    6830.8054    12265.951    1340.8598 
    1700    299.08561   -995.35356    6335.9394    11730.091    1350.8008 
    1800    301.42659   -997.71579     6305.095    11746.896    1394.9598 
    1900    298.06038   -1004.0826    6477.1803      11840.7    1280.4934 
    2000    298.30533   -1012.1515    6495.4917    11856.176    1292.5257 
    2100    300.00305   -1018.7389    6579.3356    11969.701    1479.0411 
    2200    298.67812   -1025.4332    6252.6499    11608.017     1393.649 
    2300    301.64047   -1039.1844    6380.3037    11785.205    1500.6237 
    2400    299.41067   -1052.1758    6341.4845    11685.758    1406.0927 
    2500     298.9397   -1062.8494    6484.1426    11807.681    1380.5921 
    2600    299.65624   -1074.7762    6547.6717    11874.591    1433.3762 
    2700    299.39017   -1088.1011    6414.3175    11722.228     1532.828 
    2800    300.79093   -1107.0194    6345.2188    11664.136    1552.4075 
    2900    300.62876     -1110.25    6211.4951    11523.717    1478.9993 
    3000    305.18612   -1113.0351    6072.3633    11479.161    1529.6052 
    3100    297.69507   -1102.8888    6331.0767    11587.986    1591.6355 
    3200    298.20469   -1095.7514    6437.1752    11712.109    1639.7501 
    3300    301.19766   -1093.6963    6174.4526    11515.382    1621.4899 
    3400     299.7665   -1093.6734    6179.8947    11490.273    1651.6117 
    3500    299.07529   -1102.5703    6491.4809    11778.195    1686.5259 
    3600    302.39502   -1124.8922    6632.1477    11967.461     1664.027 
    3700    298.38977   -1142.9213    6326.1417     11557.86    1652.3125 
    3800    302.75564    -1155.325    6267.0391    11579.624    1735.5016 
    3900    302.83434   -1147.3288    6166.1507    11488.413    1728.7289 
    4000    300.97631   -1141.2763     6317.326    11605.947    1695.2324 
    4100    298.56392   -1138.2758    6248.7024    11488.787    1673.5182 
    4200    296.73115    -1132.496    6495.0264    11701.736    1780.7919 
    4300    299.50376   -1133.0178    6258.0893     11523.51    1713.1828 
    4400    301.48395     -1130.19     6211.432    11521.984    1754.3484 
    4500    301.19233   -1125.8826    6248.1018    11556.731    1690.0804 
    4600    298.19154    -1123.543    6375.2304    11622.092    1609.1514 
    4700    301.51454    -1121.401    6550.0089    11870.003    1632.0616 
    4800    299.69106   -1117.5667    6574.8812    11859.754    1668.3986 
    4900    298.06372   -1114.7597    6379.1558     11632.07    1653.8562 
    5000    300.29495   -1117.7499    6155.7941    11453.385    1640.7164 
    5100    301.10247   -1116.0451    6285.8523    11602.399    1693.4997 
    5200    295.22188   -1109.1596    6479.7596    11677.562    1654.1538 
    5300    303.12044    -1110.642    6502.9369    11867.998     1694.341 
    5400    298.10768   -1113.1568    6379.5686    11635.025     1688.252 
    5500    298.49757   -1117.1741    6360.5981    11620.367    1761.1349 
    5600    306.31435   -1109.5583    6203.9159    11638.294     1687.441 
    5700    295.59042   -1116.8649    6273.8752    11471.846    1703.7816 
    5800    300.73716   -1114.6284    6406.1787    11716.338    1738.9102 
    5900    302.14581   -1114.4207    6360.7986     11701.26    1720.3024 
    6000    298.32074   -1114.1298    6414.2452     11673.28    1877.3073 
    6100    298.93483   -1120.6971    6263.3338    11528.921    1815.1673 
    6200    301.30575   -1122.4824    6278.3117    11592.764    1729.7183 
    6300    298.83636   -1128.3437    6430.4797    11686.316    1797.0245 
    6400    300.58484   -1129.6062    6350.8009    11642.729      1739.49 
    6500    296.09097   -1130.5129    6375.7153    11570.732     1697.665 
    6600    303.12907   -1140.6807    6479.4557    11814.662    1711.6181 
    6700    295.38126   -1138.7112    6317.1777    11488.834    1717.5432 
    6800     299.6317   -1139.2792    6259.5099    11521.402    1681.8618 
    6900    301.98225   -1143.7509     6331.001    11638.637    1707.8007 
    7000    299.35601   -1146.2174     6319.999    11569.063    1769.4693 
    7100    298.38005   -1153.2515     6420.284    11641.464    1804.8485 
    7200    305.33205   -1145.8235    6373.1784    11750.306    1710.2286 
    7300    297.91838   -1149.4196    6352.1525    11567.302    1767.5234 
    7400    300.21754   -1154.1452    6397.6841    11657.226     1804.566 
    7500    298.32509   -1155.2037    6337.4916    11555.546    1730.8123 
    7600    300.24565   -1148.2835    6389.0253    11655.029    1824.5579 
    7700    301.55841   -1139.9906    6339.6574    11641.999    1824.5441 
    7800    298.65368   -1145.9319    6361.9638    11596.309    1780.7909 
    7900    302.33832   -1142.7362    6345.5308    11661.789    1820.5735 
    8000    293.18522   -1134.6435    6446.3335    11575.142    1910.5948 
    8100    297.25639   -1144.1899     6348.927    11555.164    1896.9851 
    8200    302.46075    -1142.532    6286.0888    11605.167    1801.8084 
    8300    301.43647   -1139.4547    6526.3147    11826.588    1927.6369 
    8400    299.90441   -1136.4613    6391.3252    11661.861    1788.0491 
    8500    295.14153   -1135.9569    6466.2875    11635.576    1803.7597 
    8600    304.18094   -1130.5463    6384.7661    11752.579    1818.8556 
    8700    301.27377   -1125.4389     6392.225    11703.038    1796.6022 
    8800    305.10027   -1124.6209    6388.8288    11782.207    1864.2368 
    8900    298.60873   -1121.1886     6332.136    11590.265    1737.8121 
    9000    303.31556   -1120.7666    6475.2295    11834.335    1818.3753 
    9100    297.96005   -1120.8583    6486.0512    11730.652    1776.1813 
    9200    300.73917   -1122.8874    6303.7286    11605.672    1719.6195 
    9300    301.23958   -1121.6908    6404.9733    11718.804    1849.6328 
    9400    301.50291   -1120.1281    6410.3747    11731.394    1845.7947 
    9500    296.34138   -1120.1253    6441.9419    11652.695    1823.2422 
    9600     305.5765   -1126.2936    6437.3116    11839.191    1850.7809 
    9700    299.83959    -1118.643    6420.9106     11707.88    1783.3873 
    9800    303.19371   -1123.1925    6406.3128    11760.389    1802.0923 
    9900    301.47315   -1129.8633    6393.6877    11704.336    1761.4508 
   10000     294.9513   -1121.0209    6356.4386      11536.6    1821.2962 
   10100    303.13253   -1117.2659    6405.5239    11764.219    1851.8548 
   10200      300.049   -1123.2114    6463.9276    11750.803    1813.9691 
   10300    304.89064   -1121.9662    6379.4461    11771.001    1902.9929 
   10400    297.47349   -1120.9887    6426.8183    11660.894    1900.5134 
   10500    298.04538   -1130.2512    6348.8219    11585.853    1852.2816 
   10600    298.63075   -1134.0996    6379.4898    11625.178    1921.0083 
   10700    306.27294   -1133.9623     6480.438    11889.527     1920.331 
   10800    297.17313   -1125.9808    6449.1685    11671.835    1853.9785 
   10900    305.60022   -1126.7876    6527.2771    11929.169    1928.5915 
   11000    300.48115   -1127.8981    6405.9735    11697.394    1835.7251 
   11100    293.37287   -1125.4669    6312.4216    11454.416    1708.8666 
   11200    304.22476   -1125.5701    6454.1397    11827.865    1846.8338 
   11300    297.26167   -1125.1944    6430.2113    11655.556    1884.7008 
   11400     301.5208   -1127.0572    6353.0404    11667.513    1823.3215 
   11500    299.43611   -1132.6397    6393.1498    11657.503    1822.6083 
   11600    301.52102   -1134.6855    6500.3273    11807.176    1898.5201 
   11700    296.28037   -1143.2062    6349.1558    11535.525    1781.7335 
   11800    301.27722   -1143.5688    6468.1516    11760.908    1868.8955 
   11900    300.60384   -1148.7406    6338.4761    11611.675    1783.7828 
   12000    299.14262   -1148.4188    6376.7578    11619.062    1818.8322 
   12100    302.88417   -1143.5588    6491.9037        11819     1963.328 
   12200    298.74888   -1147.6081    6298.4214    11533.125    1896.3761 
   12300    302.00519   -1140.3243    6367.4922    11679.045    1930.5507 
   12400    300.26471   -1132.1259    6531.4794    11814.048    2024.5268 
   12500    302.86231   -1146.0865    6349.2508    11673.353    1831.5819 
   12600    298.39857   -1140.5542    6491.2408    11725.514     1809.215 
   12700    298.83216   -1150.8214    6468.3854    11701.655    1851.7971 
   12800    300.79926   -1153.0622    6364.6703    11637.723    1801.1942 
   12900    300.41853   -1149.3225    6434.0274    11702.686    1843.8519 
   13000    294.39644   -1149.0553    6260.3187    11400.592     1821.743 
   13100    307.35637    -1143.915    6396.3653    11818.648    1948.4037 
   13200     297.1039   -1141.0384     6437.229     11643.36    1859.9651 
   13300    304.99232   -1136.8456    6426.4885    11805.336    1898.9698 
   13400    294.53969   -1130.7253    6402.1589    11563.822    1839.5543 
   13500    301.56433   -1129.8239     6373.474    11686.109    1805.7892 
   13600    297.77369   -1126.6435    6333.7743    11568.609     1813.189 
   13700    303.41036   -1121.7319     6517.051    11877.216    1954.2794 
   13800    299.67482   -1122.8032    6597.9015    11877.191    1893.4669 
   13900    298.53125   -1121.7897    6385.5406    11641.413    1741.0233 
   14000     302.2353    -1126.177    6385.3388    11715.955    1850.4724 
   14100    299.94411   -1121.9825    6476.7967     11762.66    1838.3724 
   14200     294.7505   -1132.0077    6453.3206    11618.205    1812.1658 
   14300     300.9084     -1135.71    6394.6338     11687.37    1883.4646 
   14400    299.78792   -1137.3029    6341.3194    11608.526    1836.0086 
   14500    300.55928   -1146.7962    6459.0393    11733.231    1836.2968 
   14600    299.45748   -1153.3931    6504.5625    11748.619    1872.7635 
   14700    297.30028   -1158.9477    6368.4414    11560.858    1789.7215 
   14800    299.84252   -1154.5721    6421.8571     11672.96    1835.3669 
   14900    296.22818   -1145.8571    6415.3159    11597.919    1836.5141 
   15000     301.5752   -1151.2383    6363.3584    11654.812    1861.5641 
   15100    298.72527   -1158.0889     6354.102     11577.82    1819.8723 
   15200    301.12911   -1150.3299    6460.4201    11743.252     1885.869 
   15300    299.16666   -1162.9396     6460.379    11688.676    1930.0091 
   15400    300.62864   -1162.5605    6376.8283    11636.737    1872.4095 
   15500    299.83151   -1171.1269    6366.1168     11600.43    1906.6133 
   15600    302.98286   -1172.5595    6272.4502    11572.655    1872.0222 
   15700    297.97713   -1161.6392    6435.5661    11639.751    1921.0163 
   15800     306.0847   -1155.8056    6368.5032    11751.728     1930.333 
   15900    299.04547    -1155.964    6344.2959    11576.979    1933.6036 
   16000     300.4066   -1149.0107    6311.7676    11580.483    1894.4966 
   16100    303.39261   -1146.0576    6335.8003     11671.26    1879.9072 
   16200    301.48563   -1149.4123    6280.8125    11572.178    1863.9812 
   16300    299.62196   -1143.3509    6427.7217    11685.334    1914.9826 
   16400    295.35155   -1138.1669    6466.9431    11638.509    1968.0401 
   16500    302.96975   -1139.6313    6436.5053    11769.358    1871.8904 
   16600    302.90668   -1132.6004    6367.3451    11705.881    1822.3343 
   16700    300.94281   -1129.1848    6315.2316    11615.228    1784.7964 
   16800    300.78685   -1129.9485    6553.7708    11849.672    1861.3834 
   16900    299.48699   -1126.4418    6385.5763    11657.215    1776.8734 
   17000    300.55943   -1123.5423    6375.9471    11673.396     1854.412 
   17100    300.01041   -1123.3899    6376.9355    11662.808    1800.4553 
   17200    298.78355   -1125.9289    6508.4798    11765.603    1783.5884 
   17300     302.5494   -1132.0342    6445.6113    11777.081    1822.4436 
   17400    292.97314   -1127.5807     6458.959      11590.3    1799.0482 
   17500    301.56048   -1133.5661    6346.1632    11654.974    1809.4716 
   17600    300.43398   -1137.6468    6369.4566    11650.121    1824.4661 
   17700      294.144   -1143.0285    6417.1725    11558.079    1775.9582 
   17800    303.83481   -1138.9935    6527.4616    11879.433    1857.1736 
   17900    295.16216   -1143.3182    6417.7068    11580.075    1785.0848 
   18000    301.63422   -1147.6529    6326.8058    11623.105    1777.3421 
   18100    300.88366   -1150.6493    6385.6588    11662.927    1812.8018 
   18200    297.04502   -1157.6145    6339.5832     11527.88    1794.8649 
   18300    302.63843   -1164.7018    6350.6634    11651.367    1856.7345 
   18400     300.7163   -1157.5112    6450.0154    11716.847    1844.6425 
   18500    303.12681   -1164.1433    6417.0899    11728.786    1824.3189 
   18600    300.06487   -1160.6472    6432.2621    11682.041    1858.2763 
   18700     300.2359   -1174.0769    6364.6232    11604.626    1871.5702 
   18800    305.28067   -1156.5158    6218.6168    11583.954    1824.0105 
   18900    301.94446   -1154.7519    6336.4924    11632.321    1864.5203 
   19000    300.67575   -1160.6467    6388.4882    11651.317    1855.4732 
   19100    300.82929   -1153.3675     6402.115    11675.504    1895.9521 
   19200    296.07729   -1153.1679    6381.2833    11553.352    1940.0469 
   19300    299.76379   -1158.1408    6372.7028    11618.555    1876.4609 
   19400    298.18296   -1154.7855    6425.9192    11641.355    1822.2808 
   19500    302.57777   -1154.8576    6377.9654    11687.218    1848.9419 
   19600    300.44542   -1149.9789    6434.0266    11702.603      1852.07 
   19700    300.95728   -1142.4522    6411.7659    11698.804    1841.9038 
   19800    302.55038   -1139.2638     6377.175    11701.436    1872.0352 
   19900    301.01141   -1131.5973    6404.1361    11703.186    1872.4817 
   20000    300.55877   -1131.1065    6394.9047    11684.775    1855.2562 
   20100    299.51857   -1127.2698     6481.455     11752.94    1811.0347 
   20200    301.74333   -1120.2696    6521.7958    11847.809    1742.6039 
   20300     300.9405   -1119.4617    6530.6848    11840.355    1795.9277 
   20400    304.98381   -1118.8157    6331.0818    11727.777    1708.9897 
   20500     299.5391   -1120.3247    6392.8458    11671.714    1702.6292 
   20600    301.85862   -1120.7847    6635.5798    11963.541     1841.701 
   20700    302.60242   -1122.6923    6549.1592    11891.103    1783.5408 
   20800    298.32458    -1120.082    6434.7549     11687.92    1800.4597 
   20900    304.92209    -1128.389    6433.0856    11818.889    1881.8611 
   21000    295.09672   -1133.0507    6395.8905    11567.128    1831.2714 
   21100    301.12397   -1135.7683    6433.6785    11730.962    1814.8406 
   21200    299.96271   -1137.4073    6370.3589    11641.195    1773.2544 
   21300     301.2379   -1150.4229    6486.8061    11771.869    1881.5268 
   21400      304.341    -1157.376    6442.2296    11786.632    1823.1964 
   21500    300.38905   -1161.7517    6342.6663    11598.266    1811.1897 
   21600    300.76471   -1164.2414    6294.9148     11556.05    1885.4222 
   21700    294.39294   -1165.3852    6286.2465    11410.115    1865.5144 
   21800    300.12818   -1170.3243    6457.4857    11698.939    1964.9313 
   21900    301.15286   -1158.9958     6287.382    11562.055    1910.7945 
   22000    298.62787   -1168.1928    6336.7884    11548.322    1874.9059 
   22100    296.46194   -1163.4364    6328.9492    11498.967    1871.3927 
   22200    300.87951   -1163.0435    6526.7424    11791.528    1956.2207 
   22300    302.82374    -1167.922    6401.9918    11703.434    1885.0524 
   22400    297.35571   -1175.4731    6318.9564    11496.032    1833.2418 
   22500    301.35146   -1170.5174    6405.0237    11672.418    1875.0303 
   22600    294.96548    -1174.687       6388.1    11514.898    1877.8133 
   22700    295.57754   -1160.7659    6365.7707    11519.566    1832.8482 
   22800     303.3068   -1163.8858    6459.5003    11775.299    1949.9827 
   22900    298.29524   -1158.5131    6306.2429     11520.35     1874.624 
   23000    299.97414   -1151.0568    6392.9701      11650.4    1905.3604 
   23100    298.71963   -1155.3685      6430.24    11656.558    1912.1705 
   23200    299.40799   -1144.7926    6460.2688    11711.868    1910.5265 
   23300    297.50868   -1143.6843    6442.6457    11654.778    1872.5019 
   23400    301.28884   -1140.7305    6394.4007    11690.244    1871.6937 
   23500    298.09691   -1134.4468    6484.0984    11718.035    1906.8645 
   23600    299.86712    -1132.118    6442.9677     11717.05    1898.2538 
   23700    301.88653   -1131.6773    6355.0223    11672.688     1820.277 
   23800    297.99842   -1134.8905     6464.798    11696.186    1779.3734 
   23900    296.95636   -1134.1801     6551.559    11761.396    1765.6534 
   24000    300.16936   -1133.5899    6469.8356    11748.903    1818.4029 
   24100    300.11627   -1144.1518    6371.7588     11639.13    1844.9074 
   24200    299.32195   -1146.9074    6308.5876    11556.234    1863.4713 
   24300    299.77583   -1150.0842    6410.9069    11665.073    1891.1682 
   24400    302.29098   -1154.0514    6532.5714    11836.503    1864.4055 
   24500    302.39595   -1160.9286    6478.5766    11777.873    1825.7872 
   24600     302.7968   -1159.4685    6252.1608    11561.481    1782.7308 
   24700    296.67037   -1162.4708    6406.3419    11581.778    1874.6988 
   24800    302.93697   -1149.6005    6412.4897    11734.673    1851.4779 
   24900    295.95641   -1150.9766    6374.2498    11545.928    1918.6396 
   25000    301.48653   -1155.4524     6318.773    11604.118    1929.7281 
   25100    301.13001   -1157.6258    6292.8615    11568.416    1876.9879 
   25200    301.60503   -1170.3358    6359.1133    11632.106    1857.9425 
   25300    304.23512   -1162.1022    6343.0388    11680.453    1826.6947 
   25400    299.35549   -1164.9824    6417.8619     11648.15    1881.7343 
   25500    299.27367   -1163.2046    6302.6484    11532.966    1891.5788 
   25600    300.15098   -1157.8715    6307.1951    11561.589    1861.9816 
   25700    299.07601    -1160.769    6362.1841    11590.715    1890.3357 
   25800    300.16354   -1159.5319    6373.7731    11626.775    1896.7729 
   25900    298.18152   -1155.1857    6358.0313    11573.036    1889.7617 
   26000    302.42572   -1158.3162    6402.3297    11704.875    1868.2617 
   26100    300.86457   -1151.9031    6376.6503    11652.257    1834.8764 
   26200    299.95336   -1151.2888    6379.0643    11635.819    1898.0668 
   26300     306.0696   -1150.8272    6420.4062    11808.286    1907.8125 
   26400    301.62975   -1145.0009    6554.6552    11853.511    1887.5048 
   26500    298.61716   -1145.9606    6374.0982    11607.635     1846.518 
   26600    301.11413   -1143.7961    6453.4096    11742.455    1890.3089 
   26700    300.16118   -1138.1942    6624.1071    11898.396    1906.4649 
   26800    305.35347   -1140.2708    6392.0307    11775.168    1822.5722 
   26900    296.20072   -1143.2782     6354.714     11539.31    1786.9149 
   27000    299.00784   -1141.9173    6483.3382    11729.265    1822.1239 
   27100    298.03738   -1142.1671    6500.8538    11725.798     1818.962 
   27200    300.40968   -1146.2031     6356.264    11627.853    1792.7885 
   27300    305.48845   -1152.7379     6320.304    11693.858    1771.1688 
   27400    299.45516   -1148.1929    6465.0808    11714.288    1833.6145 
   27500    298.36425    -1158.627    6522.7397    11738.207     1872.035 
   27600    303.53434   -1158.5939    6408.7712    11734.723      1833.87 
   27700    297.72486   -1161.2947    6310.2407    11509.381    1848.2373 
   27800    299.26568   -1166.7196    6385.0186    11611.651       1917.9 
   27900    300.80395   -1168.2017    6317.6373     11575.65    1941.4645 
   28000    300.69412   -1168.7081      6354.12     11609.28     1873.524 
   28100    295.70002   -1172.2674    6506.8186    11651.728    1910.3456 
   28200    301.80485   -1165.2958    6394.0209    11676.323    1927.6622 
   28300    299.50903   -1172.1605    6408.4463    11634.837    1900.6218 
   28400    296.54042   -1177.2723    6278.5745    11436.433    1834.2845 
   28500    300.22058   -1180.7927    6395.7196    11628.679    1908.2168 
   28600    300.08065    -1178.577    6261.4601    11493.646    1759.0142 
   28700    300.52622   -1176.4795    6489.1402    11732.942    1845.6696 
   28800    300.77221    -1173.242     6390.593    11642.888    1846.1873 
   28900    306.91101   -1172.1449    6374.8745    11759.412    1938.2175 
   29000     298.8083   -1170.8637    6375.8401    11588.557    1971.0918 
   29100    301.64602   -1167.9882    6326.4185    11602.635    1939.8719 
   29200    299.79949   -1171.2355    6434.7222    11668.243     1980.137 
   29300    299.57715   -1165.1389     6330.812    11565.679    1900.5821 
   29400    297.77681   -1167.6489    6483.8903    11677.786    1921.3972 
   29500    305.95213   -1158.2689     6506.144    11884.073    1903.3014 
   29600    298.18337   -1157.4298     6454.395    11667.195    1867.8969 
   29700    305.18255   -1151.1968    6432.4773    11801.038    1890.3487 
   29800    298.05408   -1144.1383    6363.5737    11586.903    1874.7921 
   29900    299.45724   -1142.7869     6381.096    11635.754    1894.7273 
   30000    307.71054   -1142.8522    6566.1912    11997.103    1971.8965 
   30100    302.42635   -1138.7604    6494.6165    11816.731    1964.6798 
   30200    297.72841   -1140.9637    6392.8162    11612.363    1892.8687 
   30300    303.76339   -1142.6581    6404.3106    11751.091    1883.7659 
   30400    305.18272   -1138.5744     6445.576    11826.762    1861.9788 
   30500    299.36613   -1137.0613    6445.9167    11704.354    1853.6395 
   30600    293.74194   -1140.4696    6556.7261    11691.602    1958.6797 
   30700     302.8484   -1135.1374    6346.8998    11681.654    1870.3885 
   30800    300.56205    -1145.552    6498.2547     11773.75     1934.951 
   30900    298.92769   -1146.2503    6554.3475    11794.229    1914.7459 
   31000    297.15731   -1145.2642    6344.3976    11547.443    1811.9613 
   31100    294.99609   -1144.1425    6402.2772    11560.273    1898.8306 
   31200    304.63708   -1150.2137    6384.4908    11742.381     1927.094 
   31300    295.58034   -1151.4258    6378.1245    11541.319    1882.1119 
   31400    299.03099   -1150.9202    6369.1088    11606.527    1936.2641 
   31500    303.53756   -1158.3442    6435.5019    11761.772    1976.5457 
   31600    294.54306   -1157.3175     6380.323    11515.466    1922.0486 
   31700    302.46856   -1163.6398    6358.9977    11657.135    1908.0953 
   31800      297.679   -1166.4632    6397.9262    11590.918    1932.7611 
   31900    305.36615   -1162.5423    6476.8455    11837.982    1948.2901 
   32000    296.91354   -1160.0559     6353.568    11536.614    1853.6515 
   32100    298.60097   -1160.3435    6365.5517     11584.36    1925.5555 
   32200     307.6593    -1154.272    6395.3394    11813.736    1980.2731 
   32300    298.88536   -1154.5703    6360.0059    11590.663    1944.1993 
   32400    301.65171   -1154.9517    6257.2645    11546.639    1938.2244 
   32500    298.33974   -1155.6407    6491.1593    11709.089    2030.3021 
   32600    310.54683   -1158.3075     6355.077    11831.126    1957.5565 
   32700    299.38608   -1154.2561    6331.4524     11573.12    1935.2972 
   32800    296.74652   -1161.2313    6425.6621    11603.965     1938.396 
   32900    301.27978   -1158.0075    6467.7109    11746.084    1892.3831 
   33000    297.99735   -1149.8534    6446.6234    11663.026    1857.3384 
   33100    303.48765   -1149.5128    6398.9082    11732.943    1863.8016 
   33200    296.82357   -1150.8305     6461.964    11652.314    1937.2671 
   33300    304.35643    -1150.357    6340.0224    11691.774    1941.8123 
   33400    295.64687   -1143.6003    6434.9584      11607.4    1929.5744 
   33500    303.00659   -1141.1994    6455.5797    11787.651    1913.6146 
   33600    302.80772   -1141.2367    6489.0758    11816.861    1918.7222 
   33700    295.54528   -1145.3727    6379.1844    11547.683    1956.1609 
   33800    302.88952   -1144.0696    6322.5807    11649.281    1931.8936 
   33900    295.32209   -1143.9048    6447.4784    11612.677    1919.7559 
   34000    301.58288    -1145.792    6466.5706    11763.634     1941.559 
   34100    303.83161   -1152.0014    6480.8534    11819.748     1975.385 
   34200    301.14379   -1148.7277    6396.7531      11681.5    1915.9236 
   34300    294.97056   -1147.0117    6503.0599    11657.641    1941.0251 
   34400    301.56229    -1154.775    6449.2611    11736.902    1922.1174 
   34500     297.6514   -1147.1646    6350.4979    11562.199    1906.1159 
   34600    304.69236   -1152.6137    6311.3116    11667.983    1882.4343 
   34700     302.0631   -1159.2529    6340.6789    11634.541    1900.7251 
   34800    298.33443   -1156.7416    6517.6682    11734.384    1942.1035 
   34900    303.29248   -1160.4252    6429.4009    11748.354    1899.5354 
   35000    296.60384   -1164.9618    6381.7073    11553.231    1864.6343 
   35100    301.16012   -1162.1286     6335.553    11607.248    1888.8043 
   35200    299.03255   -1161.0758    6299.0903    11526.386    1893.2968 
   35300    293.39782   -1153.6396    6518.8625    11633.217    1939.7325 
   35400    301.33762   -1161.1447    6381.2137    11657.685     1896.747 
   35500    297.55121   -1162.7332    6388.2191    11582.211    1964.1138 
   35600    300.80094    -1158.274    6380.3252    11648.202    1909.2737 
   35700    300.24073    -1161.365    6373.9504    11626.768     1854.876 
   35800    298.09422   -1163.6953    6472.1746    11676.805    1940.2918 
   35900    300.23575   -1150.2768    6399.5479    11663.347    1901.5277 
   36000    301.30463   -1157.6111    6362.9592    11642.259    1905.3546 
   36100    298.09707   -1163.6479    6390.0562    11594.795       1937.1 
   36200     300.5983   -1158.5074    6532.7761     11796.09    1984.8077 
   36300    295.92899   -1162.9515    6345.9087    11505.026    1889.6113 
   36400    297.74846   -1156.1285    6366.5911    11571.402    1940.8441 
   36500    301.18859   -1152.3983    6328.8704    11610.904    1926.6615 
   36600    299.84638   -1156.8961    6427.5839    11676.446     1968.593 
   36700    303.62087    -1155.182    6476.4731    11807.685    1949.1784 
   36800    293.98354   -1161.9371    6455.7478    11574.318    1931.8359 
   36900    300.68095   -1163.2843    6373.8125    11634.115    1918.2461 
   37000    301.37591   -1151.2226    6496.0146    11783.226    1874.7151 
   37100    299.96453   -1160.0601    6487.7303    11735.952    1882.1357 
   37200    302.24269   -1160.3602     6380.145    11676.736    1945.8445 
   37300    300.88076   -1156.2057    6390.1695     11661.82    1911.7504 
   37400    300.42894   -1156.6103     6444.623    11706.216     1934.434 
   37500    299.11374   -1156.8413    6378.8178    11612.083    1957.3821 
   37600    299.01579   -1157.3367    6550.9599    11781.637    1927.8638 
   37700    306.43881   -1152.8086    6512.7419    11906.528    1968.5542 
   37800     295.0507   -1158.2213     6357.478    11502.562    1952.5925 
   37900    302.39892   -1164.2141    6380.8487    11676.924    1877.1057 
   38000    297.95123   -1148.5167    6492.0411    11708.795    1898.1373 
   38100    301.17579   -1150.9781    6506.3485    11789.529     1971.868 
   38200    302.68834    -1148.533     6489.939    11807.878    1907.1748 
   38300    304.66298   -1147.1086    6536.4143    11897.963    1936.5716 
   38400    300.96744   -1149.6654    6315.6682     11595.71    1860.5388 
   38500     299.2862   -1145.4664    6379.4108    11627.735    1815.9149 
   38600    300.70965   -1145.1564    6571.6286    11850.672    1881.4244 
   38700    297.92745   -1144.6411    6448.8485     11668.97    1913.5856 
   38800    302.96255   -1143.9425    6382.5143    11710.902    1885.3103 
   38900    298.52117   -1142.7498    6432.1844    11666.881    1908.8349 
   39000    300.14723   -1143.1521    6420.6257    11689.659    1920.4117 
   39100     306.2233   -1146.9374     6501.427     11896.48    1992.7743 
   39200    299.57053   -1144.5244    6508.1729    11763.513    1934.8579 
   39300    303.09304   -1146.3774    6350.6934    11679.434    1815.7859 
   39400    296.05418    -1145.574    6392.3847    11571.554    1889.4691 
   39500    297.51826   -1147.2204    6363.3751    11572.176    1843.5196 
   39600    300.13604     -1147.67    6448.4908    11712.767    1859.8338 
   39700    300.59641   -1141.4249    6422.3609    11702.717    1873.9503 
   39800    302.79812   -1151.5476    6442.1882    11759.458    1872.2201 
   39900    294.74735   -1153.5338    6373.8712    11517.162    1811.5051 
   40000    301.44876   -1155.2715    6476.6115     11761.33    1906.0871 
   40100    300.30353   -1148.7038    6417.7998     11684.62    1920.3427 
   40200    295.48837   -1157.5776    6434.9523     11590.03    1944.7965 
   40300     302.4281   -1157.3121     6256.781    11560.381    1893.2303 
   40400    296.97673   -1144.5368    6433.5962    11633.512    1955.2764 
   40500    302.22256   -1146.8781    6570.7384    11880.382    1984.1674 
   40600     301.0874   -1151.6774    6366.2122    11646.805    1850.8011 
   40700    300.89964   -1157.6976    6301.8563    11572.418    1894.5569 
   40800    299.27826   -1150.6475    6357.3224    11600.296    1881.6397 
   40900    297.18395   -1154.8078    6472.3224    11666.394    1870.5018 
   41000    300.41402   -1151.7621    6351.2185    11617.341    1825.7685 
   41100    302.54534   -1158.3976     6433.167    11738.186    1924.9444 
   41200    303.83422   -1153.3593    6556.8214    11894.414    1913.8879 
   41300    291.89919   -1149.7162    6445.2632    11531.525    1854.9707 
   41400    300.77821   -1149.3345    6350.0296     11626.36    1891.5628 
   41500    300.68558   -1149.1579    6422.9238    11697.452    1951.4823 
   41600    299.44758   -1147.1231    6300.8685    11550.984    1869.9609 
   41700    300.71963   -1141.2098    6625.9678    11909.171    1965.2559 
   41800    305.72557   -1141.7578     6488.964    11878.564    1879.4585 
   41900    300.52498   -1141.5266    6383.0618     11661.79    1882.7283 
   42000    297.09138   -1147.5323    6287.3652    11486.734    1861.7996 
   42100    304.88346   -1146.5824    6460.5375    11827.322    1933.2103 
   42200    296.30808   -1148.1086    6413.9704    11596.029    1904.4109 
   42300    300.52853   -1146.5773    6335.5618    11609.315    1758.8657 
   42400    304.41403   -1141.9141    6481.9601    11843.385    1836.8796 
   42500    296.76958   -1151.1867    6515.5115    11704.351     1858.341 
   42600    296.23024   -1148.5582    6389.9095    11569.856    1758.2247 
   42700    302.30951   -1145.3296    6441.4568    11754.506     1828.375 
   42800     298.6384    -1138.894    6568.9965    11810.054    1898.8341 
   42900    302.43493   -1144.4917    6342.5939    11659.161    1802.1638 
   43000    293.24607   -1142.9146    6358.0097    11479.847    1819.0542 
   43100    297.94583   -1143.7659    6365.1272    11586.517    1924.0985 
   43200    300.39867   -1150.4387    6400.4091    11667.527    1846.1939 
   43300    301.29419   -1155.0668    6528.2924    11809.914     1852.683 
   43400    299.59839   -1149.8511    6402.8011     11653.41    1855.4566 
   43500    302.02902   -1151.5869    6301.8911    11602.691    1852.6746 
   43600     300.1163   -1151.8848    6339.4855    11599.125    1842.0478 
   43700    296.32297   -1154.7441    6380.3881     11556.13    1850.7252 
   43800    302.04099   -1150.4139    6514.4373    11816.666    1900.9842 
   43900    302.67795   -1146.6861    6465.5743    11785.138    1877.3985 
   44000    303.87595   -1150.5238    6348.1527    11689.472    1885.5229 
   44100    299.60504   -1151.2272    6239.2764    11488.651    1915.5605 
   44200    298.84445   -1153.6111    6423.8952    11654.637    1868.2009 
   44300    300.23704   -1150.6119    6462.5958    11726.088    1886.6036 
   44400    298.67369   -1150.1836     6375.633    11606.155     1884.686 
   44500    298.60299   -1148.9042    6498.5422    11728.833    1936.5689 
   44600      306.026   -1150.0671    6381.4877    11769.197    1880.6975 
   44700    295.99403   -1153.9983    6349.5615    11519.021    1900.5135 
   44800    301.49382   -1148.7668    6411.6096    11703.796    1932.7753 
   44900    295.29543   -1147.0521    6431.1304    11592.612    1892.3254 
   45000    299.10473   -1146.0276    6460.7969    11704.683    1961.7114 
   45100    303.97917   -1147.3678    6418.8358    11765.516    1930.2451 
   45200    301.91185   -1153.6818    6415.1082     11711.31    1844.0885 
   45300    294.93073   -1146.9459    6464.0567    11617.853    1833.6654 
   45400    300.18082   -1140.6137    6413.7372    11686.026    1809.3279 
   45500    300.71012   -1145.7911    6563.9496    11842.369    1839.3023 
   45600    308.97162   -1142.8228    6397.2139    11855.096    1857.0276 
   45700    298.58617   -1143.8864    6451.6752    11686.624    1953.0826 
   45800    298.64138   -1145.7382    6427.3418    11661.619     1885.258 
   45900    301.51265   -1144.6396    6463.3408    11760.056    1856.9426 
   46000    298.28041   -1142.2573    6530.4135    11760.459    1953.3522 
   46100    300.84731   -1144.9473    6370.9887    11653.183    1798.8711 
   46200    300.77246   -1142.7232    6435.8453    11718.664     1888.126 
   46300    299.18026   -1146.4611    6359.3238     11604.39    1877.6785 
   46400    299.76871   -1147.3461    6332.2014    11588.954    1879.4842 
   46500    304.27759   -1146.5284    6513.4262    11867.322    1945.3097 
   46600    298.68183   -1152.6697    6496.5694    11724.779    1908.7868 
   46700    302.14955   -1150.3394    6362.1418    11666.764    1846.1533 
   46800    301.76662   -1154.5221    6468.9192    11761.178    1918.0618 
   46900    297.06591   -1159.8025    6358.9792    11545.534     1866.368 
   47000    301.80317   -1160.2834    6402.1276    11689.406    1938.1613 
   47100    299.61832   -1160.2095    6553.0936     11793.77    1980.1695 
   47200    301.37827   -1156.7219    6350.3652    11632.128    1857.1263 
   47300    299.30204   -1157.7158    6328.2466     11564.66    1859.4244 
   47400    301.43338    -1154.888    6392.9758    11677.749    1913.5003 
   47500    301.98824   -1160.5284    6436.0061    11726.993    1881.0824 
   47600    306.10553    -1161.693    6471.6913    11849.473    1936.0126 
   47700    297.82862   -1168.8996    6492.9828    11686.735    1912.2951 
   47800    295.08169    -1159.576    6457.7783     11602.17    1893.3257 
   47900    303.18541   -1164.5323    6364.0345    11676.593    1894.8146 
   48000    294.45062   -1161.3809    6328.7334    11457.838    1875.3351 
   48100    304.29138   -1159.0004    6471.3416     11813.06    1890.5806 
   48200    299.11593   -1155.8718    6530.3389     11764.62    1931.4016 
   48300    300.75766   -1156.4179    6431.7894    11700.597    1891.0877 
   48400    296.23925    -1164.743    6278.4871    11442.441    1813.5108 
   48500    298.45466   -1160.8603    6454.9074    11670.073    1918.6391 
   48600    295.07108   -1160.5164     6467.328    11610.553    1976.9067 
   48700    300.00962   -1159.0822     6368.469    11618.632    1862.1188 
   48800    302.84866   -1157.2198    6447.2062    11759.883    1866.9684 
   48900    300.51196   -1158.6644    6530.3633    11791.676    1920.0641 
   49000    300.01403   -1161.5646    6320.7282    11568.503    1809.1191 
   49100    302.91811   -1158.0501    6390.3927    11703.723    1893.8486 
   49200    298.44596   -1150.6803    6401.2668    11626.426    1865.9036 
   49300    300.24575   -1150.2335    6415.5394    11679.596    1842.4304 
   49400     297.1696   -1158.5854    6387.6733     11577.66    1819.6279 
   49500    296.63616   -1166.7105    6436.8557    11607.322    1962.8835 
   49600    301.16869   -1157.7645    6361.1873     11637.43    1922.8539 
   49700    297.94204   -1158.1054    6502.2177    11709.187    1922.0918 
   49800    298.57691   -1164.6975     6507.672    11721.612    2009.1109 
   49900    300.46637   -1153.2481    6408.1186    11673.873    1946.8022 
   50000    301.03143   -1153.0316    6337.3486    11615.392    1894.9919 
   50100    296.47218   -1150.4598    6430.6799    11613.893    1948.5638 
   50200    302.99846   -1151.8809    6396.5881    11717.804    1962.0304 
   50300    299.87901   -1155.5805    6390.7876    11641.662    1847.8649 
   50400    298.57718   -1152.8838    6414.4338    11640.193    1842.9506 
   50500     299.9033   -1157.1745    6432.7402     11682.54    1839.8055 
   50600    294.81658   -1160.4215    6459.6965    11597.579    1811.6047 
   50700    300.61029   -1154.3258    6386.9431    11654.695    1836.1114 
   50800    300.69769    -1156.274     6440.498    11708.169    1975.6208 
   50900    299.20166   -1152.7088    6414.0566    11653.332     1916.951 
   51000     306.4166   -1149.8932    6468.6809    11864.908    1923.0545 
   51100     298.0279   -1148.0446     6467.971    11686.835     1949.954 
   51200    301.04961   -1150.7842    6404.7745    11685.453    1913.7391 
   51300    297.77059   -1146.1858    6329.6623    11544.888    1839.2244 
   51400    294.36755   -1145.6595    6500.5219    11643.573    1917.4008 
   51500    300.50264   -1151.8104    6424.3804    11692.348    1836.3907 
   51600    299.96717    -1155.232    6386.7559    11639.862    1783.6526 
   51700    295.80847   -1153.9182    6453.8051    11619.381    1838.0175 
   51800    308.63775   -1156.8679    6441.1484    11877.852    1837.2613 
   51900    300.15471   -1153.2255    6498.0181    11757.137    1895.2696 
   52000     299.5383   -1155.9057    6378.9218    11622.192    1903.3002 
   52100    298.23507   -1145.9456    6336.8171    11562.206    1901.1453 
   52200    302.78995   -1137.6622    6455.0583    11786.039    1919.5211 
   52300    296.72997   -1148.3981    6462.2275     11653.01    1980.7458 
   52400    300.54294   -1150.0268    6344.0507    11614.663    1890.9199 
   52500    300.50937   -1154.0931    6406.2133    11672.042    1881.4054 
   52600    299.51749   -1153.0712    6414.0216    11659.682    1846.6412 
   52700    295.17881   -1156.9052    6434.9317    11584.069    1843.5932 
   52800    303.50992   -1157.5352    6440.7939    11767.282    1923.0934 
   52900    300.18198   -1159.1056    6361.8341    11615.656    1856.4988 
   53000    305.38829   -1150.6091    6438.4719    11812.015    1882.1584 
   53100    298.11244   -1149.2218     6420.035    11639.528      1862.82 
   53200    300.16136   -1150.7442    6486.4734    11748.216    1851.3101 
   53300    303.03834   -1150.3351    6367.1027    11690.717    1855.0653 
   53400    303.12947   -1147.2287    6205.7685    11534.436    1852.4331 
   53500    298.16498   -1152.8904    6372.5903    11589.537    1819.3162 
   53600    296.98032   -1152.1328    6479.1369    11671.533    1792.5079 
   53700    301.46372   -1153.1562    6484.1244    11771.278    1847.9317 
   53800    295.76082   -1155.0144    6381.6117    11545.074    1793.1187 
   53900    302.22484   -1152.9211    6379.0218    11682.671    1825.8086 
   54000     302.9993   -1149.5496    6480.7415    11804.307    1945.5781 
   54100    302.31681   -1148.4482    6352.6892    11662.776    1893.6293 
   54200    295.58905   -1142.3236    6498.5863    11671.069    1857.2537 
   54300    301.16312   -1145.4044    6414.3448    11702.828    1893.8654 
   54400    301.50948   -1147.0294    6346.5407    11640.799    1894.0309 
   54500    298.78256     -1149.24    6423.2773    11657.068    1856.4249 
   54600    303.40644   -1151.3282    6450.6187    11781.103    1852.4261 
   54700    301.42086    -1159.308    6343.3182    11623.404    1793.6182 
   54800    298.37914   -1156.5927    6496.5791    11714.399    1769.3123 
   54900    297.32455   -1149.8273    6531.4563    11733.512    1888.1904 
   55000    302.48165   -1161.8952    6278.3145    11578.476    1884.0008 
   55100    298.98978     -1154.56    6296.9143    11529.812    1818.7139 
   55200    298.78055   -1144.8518     6447.502    11685.638    1906.9146 
   55300    303.58544   -1154.2284    6447.9586    11779.367    1928.7875 
   55400    297.57723   -1155.1027    6472.6635    11674.842    1861.4931 
   55500    300.79589   -1157.7909    6368.8795    11637.131    1853.0923 
   55600    303.33189   -1162.0523    6396.6668    11714.835    1937.9717 
   55700    301.04096   -1157.9858    6394.8334    11668.126    1842.0904 
   55800    300.30368   -1165.9655    6527.2019    11776.764    1838.1684 
   55900    301.97956   -1162.2749    6542.2711    11831.326    1946.2177 
   56000    298.61356   -1161.0733    6324.4658    11542.813    1832.9451 
   56100    303.60593   -1160.5858    6471.6391    11797.128    1869.6562 
   56200    299.13251    -1161.207    6397.5028    11626.803    1867.6273 
   56300    308.66647   -1159.9035    6372.1854    11806.467    1873.6117 
   56400    299.59863   -1161.9447    6486.7542    11725.274    1894.6588 
   56500    301.50766   -1164.1482    6435.2807    11712.381    1938.0005 
   56600    294.73955   -1164.4634     6362.538    11494.733    1914.6078 
   56700    300.15419   -1165.8139    6405.1831    11651.703    1853.0099 
   56800    300.64517   -1165.5373    6452.9824    11710.268    1903.6476 
   56900    299.51446   -1166.4004    6369.6814    11601.948    1891.9741 
   57000    296.40864   -1157.7877    6388.9542    11563.482    1801.0514 
   57100    298.65208   -1161.0368     6418.605    11637.812    1870.2244 
   57200    299.96599   -1167.2454    6409.8372    11650.905    1869.8698 
   57300    299.29815   -1167.9556    6402.5873    11628.677    1849.1198 
   57400     298.0143   -1165.7344    6362.1823    11563.066    1870.4496 
   57500    299.54081   -1163.7056    6378.0921    11613.616    1871.2675 
   57600    296.64995   -1162.8115    6451.0684    11625.728    1839.6103 
   57700     298.8599   -1164.1391    6456.5796    11677.124    1864.6097 
   57800    301.03525   -1160.4905    6377.9289    11648.595    1911.7201 
   57900     300.3581    -1159.559    6292.3992     11549.53    1901.1292 
   58000    298.43497   -1159.7105    6391.2499    11607.145    1856.9557 
   58100     302.0761   -1154.8276    6537.3784    11835.943    1925.3798 
   58200    299.62219   -1154.8104    6465.3314    11711.489    1837.1962 
   58300     294.4965   -1159.0812    6392.8637    11525.248    1794.9625 
   58400    297.93139   -1159.4008     6396.564     11602.01    1857.7423 
   58500    302.92826   -1152.7514    6469.3668    11788.213    1958.3009 
   58600     300.3187   -1151.9107    6447.1365    11711.074    1847.4314 
   58700    303.08006   -1156.6447    6454.8782    11773.074    1831.9647 
   58800    300.68955   -1155.1163     6493.698    11762.353    1927.0673 
   58900    300.01341   -1148.0746    6477.7137    11738.965    1890.9315 
   59000    299.51434   -1152.1397     6302.968    11549.493    1862.7948 
   59100     296.7223   -1149.0527    6509.4322    11699.396    2019.7487 
   59200    302.41709   -1147.1807    6435.8547    11749.351     1853.634 
   59300    296.33461   -1146.7155    6470.3317    11654.351    1813.6526 
   59400    303.41159   -1149.8897    6468.4918    11800.525    1913.2449 
   59500    295.19218   -1148.3036    6413.8028    11571.827    1902.3599 
   59600     303.4849   -1144.2416    6520.0973    11859.345    1921.6523 
   59700    298.79354   -1149.6567    6448.9882    11682.597    1869.8045 
   59800    302.43653   -1148.1978    6395.5462    11708.441    1909.0703 
   59900    301.73937   -1153.1687    6426.6569    11719.687     1909.036 
   60000    299.45668   -1157.6835    6379.2921    11619.041    1841.3051 
   60100    296.96956   -1151.2298    6515.3933    11708.463    1884.3725 
   60200    301.46298   -1161.5303    6473.7211    11752.485    1896.2634 
   60300    298.28508   -1163.5927    6392.0106    11600.821    1879.5393 
   60400    300.55685   -1160.3885    6414.9849    11675.532    1864.3947 
   60500    298.99967   -1163.9192    6421.6051    11645.355    1911.3754 
   60600    301.72957   -1166.6487    6345.4022    11624.743     1826.695 
   60700    296.73054   -1160.5744    6328.7494    11507.368    1877.8292 
   60800    304.10451   -1168.4587    6378.0153    11706.283    1879.7557 
   60900    295.25466   -1169.6799    6404.3907    11542.374    1843.9666 
   61000    300.64495   -1169.3618    6517.8542     11771.31    1907.1838 
   61100    296.53245   -1172.1066     6374.905    11537.759     1920.228 
   61200    303.14699   -1170.0355    6289.8391    11596.074    1929.0954 
   61300    296.57578   -1164.1329    6408.0206    11579.774    1899.7272 
   61400    297.12527   -1163.1875    6388.3194    11572.757    1910.7845 
   61500    303.19682   -1166.9473    6449.8062    11760.194     1889.076 
   61600    295.76857   -1171.8569     6416.392    11563.177    1834.8549 
   61700    299.02727   -1168.0691    6412.2272    11632.417    1847.1509 
   61800    302.60864   -1162.1817    6396.5902    11699.178    1875.8957 
   61900    296.14181   -1165.3308    6422.6565    11583.941    1907.3259 
   62000    298.74589   -1161.7375    6461.2107    11681.721     1906.957 
   62100     299.6861   -1161.0265    6329.0406    11570.348    1849.0725 
   62200    299.61086   -1153.6126    6536.4615    11783.575    1912.3064 
   62300    299.08166    -1153.429    6391.0107    11627.002    1834.1713 
   62400    301.58278   -1152.2029     6344.024    11634.674    1878.7751 
   62500    299.92173   -1149.7172    6450.3696     11708.02    1925.6007 
   62600    299.43804   -1150.8568    6426.3231    11672.501    1893.4351 
   62700    299.10548   -1147.8118    6416.0044    11658.122    1875.9216 
   62800    302.99365   -1146.0069    6472.4325     11799.42    1891.8981 
   62900     297.8554   -1145.7929    6542.3345    11759.765    1907.3316 
   63000    305.65549   -1148.2059    6371.7101    11753.365    1797.3277 
   63100    293.77052   -1147.4055     6362.925    11491.476    1826.1487 
   63200    301.10731   -1151.2713    6470.2028    11751.627    1854.4116 
   63300    303.60874   -1148.1349    6453.5486    11791.549    1868.0054 
   63400    297.20351   -1155.3849     6286.361    11480.273    1833.2873 
   63500     303.7958   -1150.8107    6489.6034    11828.924    1910.5888 
   63600     299.5702   -1160.1028     6427.595     11667.35    1844.5101 
   63700     296.8408   -1157.2764    6366.1506    11550.422    1878.4034 
   63800    297.35182   -1161.0596    6423.4146     11614.82    1893.7483 
   63900    301.04274   -1165.8011    6406.2792    11671.794    1874.2583 
   64000    294.93295    -1164.905    6397.9735    11533.858    1897.6045 
   64100    302.75225   -1171.6496    6546.7873    11842.975    1895.8172 
   64200    300.81493   -1172.2267    6432.8096    11687.032    1846.2957 
   64300    299.61611   -1172.7635    6351.5535    11579.628    1846.2323 
   64400     307.1668   -1164.9374    6433.1666    11830.377    1924.6766 
   64500     297.8902   -1169.8181    6428.2933    11622.442    1904.4458 
   64600     303.3938   -1168.3588    6446.1837    11759.368    1924.9889 
   64700    300.05461   -1165.5155    6404.1781    11648.869    1869.7772 
   64800    300.72374   -1169.8676    6353.1631    11607.797     1843.083 
   64900    299.23398   -1169.6897    6448.9743     11671.96    1915.0352 
   65000    302.51825   -1172.1301    6378.1331    11668.841    1887.1469 
   65100    299.99581   -1164.1143     6502.009    11746.845    1947.3219 
   65200    298.61853    -1170.803    6382.0413    11590.765    1901.2631 
   65300    301.97944   -1167.5406    6387.5665    11671.353    1890.2013 
   65400    296.77737   -1165.7295     6469.661    11644.125    1905.7218 
   65500    298.87342   -1161.0889     6381.222    11605.105    1820.7978 
   65600    298.69087   -1160.3062    6374.9658    11595.732    1830.2621 
   65700    297.82149   -1152.7427    6493.0796    11702.836    1954.2416 
   65800     301.8658   -1146.8837    6353.5916    11655.608    1827.2476 
   65900    301.24509   -1156.9742    6413.5077    11692.173     1915.115 
   66000    293.10867   -1147.7314     6381.491    11495.576    1835.4524 
   66100    301.98171   -1154.0932    6528.0465    11825.329     1881.561 
   66200    293.99463   -1154.0291    6410.8327    11537.548    1843.2861 
   66300    303.11906   -1151.6808    6389.5436    11713.536    1848.4486 
   66400    300.22803   -1147.1657    6442.6929    11709.438    1870.8376 
   66500    296.60547   -1147.3038    6432.6835      11621.9    1950.9708 
   66600    295.74264     -1140.03    6372.3158    11550.374      1919.95 
   66700    306.15785   -1144.9112    6376.1049    11771.787     1834.799 
   66800    297.86564   -1145.7083    6505.1267    11722.861    1884.3269 
   66900     298.4419   -1151.1842    6471.2226    11695.792    1893.0877 
   67000    303.53056   -1157.4971    6448.5913    11775.559    1875.8531 
   67100    300.78819    -1148.469    6347.5425    11624.952    1863.9638 
   67200    296.41317   -1157.8207    6436.4766    11611.068    1945.6212 
   67300    294.76824    -1150.763      6442.85    11589.358    1860.0694 
   67400    300.40422   -1152.5254       6386.6     11651.75    1813.6092 
   67500    301.17703   -1149.9938    6435.0535    11719.245    1888.2804 
   67600    295.78127   -1156.8095    6493.6502    11655.754    1911.9401 
   67700    301.43851   -1148.9461     6431.275      11722.1    1851.6971 
   67800    303.31354   -1156.2116    6422.8788    11746.496    1862.1561 
   67900    299.97915   -1157.4046    6480.8064    11731.996    1865.7208 
   68000    298.59412   -1160.2159    6399.9542    11618.744    1836.8625 
   68100    303.20109   -1161.7382    6362.5125      11678.2    1862.1176 
   68200    300.67871    -1161.747    6497.3943    11759.187    1831.8597 
   68300     299.8873   -1157.9148    6529.2832        11778    1859.8457 
   68400    300.26702   -1159.3604    6336.1217    11591.505     1857.247 
   68500    299.53179   -1154.0484    6298.7286    11543.717     1910.402 
   68600    301.05777   -1155.9637    6394.4797    11670.153     1885.044 
   68700    301.22061   -1151.0729    6477.4113    11761.455    1911.8527 
   68800    295.94577   -1157.3953    6414.7185     11579.75    1875.1606 
   68900    301.43053   -1152.8636    6400.8663    11687.604    1856.2825 
   69000    295.46948   -1152.2375    6478.7745    11638.789    1906.9795 
   69100    294.75065   -1150.8502     6393.069    11539.114    1912.7086 
   69200    302.67847   -1150.6638    6453.6303    11769.228    1922.2133 
   69300    295.89572    -1154.287    6433.7733    11600.844    1865.6486 
   69400    301.54711   -1161.0663    6470.7579    11751.783    1900.0568 
   69500      295.291   -1150.5937    6487.3631    11645.209    1869.3749 
   69600     302.7441   -1145.9102    6344.2629    11666.016     1847.433 
   69700    297.41544   -1149.1576    6408.3857    11613.053      1929.56 
   69800    299.29632   -1146.2498    6427.0802    11674.837    1882.4964 
   69900    291.04876   -1147.8472    6439.8981    11509.861    1862.1242 
   70000    299.61218   -1149.6093    6486.5071    11737.652    1936.0898 
   70100    297.90791   -1153.1853    6429.9511    11641.111     1904.846 
   70200    299.03366   -1155.6479    6421.3301    11654.078    1892.5621 
   70300    299.66072   -1157.5947    6395.9379    11640.135    1856.8829 
   70400      303.249   -1157.4201    6538.0493    11859.079    1869.9118 
   70500    293.23436   -1156.7037    6552.8439    11660.642    1873.3967 
   70600    302.37512   -1162.5309    6317.4637    11614.713    1835.8144 
   70700     298.1346   -1158.4829    6475.1304    11685.836    1976.2848 
   70800    300.48477   -1155.1076    6433.2243    11697.513    1936.7873 
   70900     300.2092   -1151.7964    6314.1852    11575.898    1941.9419 
   71000    298.37055   -1156.7583     6401.115    11618.586    1964.0211 
   71100    301.55048   -1162.9932    6436.9972    11716.167    1894.6355 
   71200    297.13953   -1166.9616    6355.1574    11536.126    1829.5919 
   71300     301.4976   -1175.3526    6448.7744    11714.455    1871.6314 
   71400    297.52129   -1168.4273     6465.034    11652.693    1871.1325 
   71500    298.71503   -1167.8935    6373.3396    11587.034    1848.0624 
   71600    303.99685   -1164.1543    6480.4742    11810.746    1931.7686 
   71700    296.70864   -1161.2177    6392.1973    11569.704     1875.203 
   71800    306.35618   -1161.8709      6453.94    11836.899    1936.0596 
   71900    297.27233   -1166.5726    6443.7386    11627.933    1923.5519 
   72000    295.27225   -1166.0258    6384.4163    11526.429    1864.9113 
   72100    303.01709    -1167.452    6473.5682    11779.611    1873.1643 
   72200    294.66652   -1167.0281    6355.9708    11484.041    1790.6938 
   72300    303.95765   -1166.2169    6454.4027    11781.775     1933.918 
   72400     297.1249   -1165.6845    6413.9901    11595.923    1940.9759 
   72500    299.67312   -1160.3628    6376.4066      11618.1    1866.1163 
   72600    302.28409   -1160.1775    6432.3608    11730.019    1918.7409 
   72700    298.73016   -1160.7997     6450.972    11672.084    1918.5983 
   72800    302.09335   -1152.7936    6403.0014    11703.969    1842.0899 
   72900    299.51268   -1156.1226    6328.0082    11570.514    1811.9519 
   73000     298.0882   -1160.4779     6499.203    11706.922    1839.1912 
   73100    303.37104   -1162.2744    6505.5776     11824.36    1834.0592 
   73200    293.10641   -1160.0729    6384.4261    11486.122    1850.5712 
   73300    302.22857    -1163.758    6376.1472    11669.039    1936.8218 
   73400    302.74857   -1158.1735     6518.497    11828.082    1928.0124 
   73500    304.01766   -1155.2357    6466.2275    11805.863    1950.6632 
   73600    296.01253   -1156.1239    6393.1497    11560.879    1942.3759 
   73700    298.56458   -1158.3404    6433.9619    11653.996    1937.3885 
   73800    300.01708   -1153.8601    6379.2054     11634.75    1864.7954 
   73900    299.81696   -1163.4777     6430.026    11671.678    1896.1291 
   74000    303.35246   -1160.2574    6366.3584    11686.761    1840.5802 
   74100    301.31421   -1163.1085    6484.8118    11758.819    1838.0955 
   74200    294.16038   -1164.4145     6445.987    11565.858    1836.9515 
   74300    302.05505   -1163.3895    6455.1839    11744.737    1875.6207 
   74400    300.28419   -1161.0843    6365.1795    11619.206    1812.2424 
   74500    299.77381   -1152.1985    6447.2535    11699.262    1914.9637 
   74600    297.47444   -1151.3283    6468.6167    11672.373    1934.1361 
   74700    296.20512   -1152.2781    6447.3073    11622.997    1981.2912 
   74800    303.36824    -1154.355    6300.8911    11627.533     1935.652 
   74900     300.7356     -1159.42    6278.7347    11544.069    1937.5398 
   75000    298.03047   -1157.8433    6385.4815    11594.602    1913.6301 
   75100    298.05266   -1159.7676    6507.4876    11715.158    1893.0821 
   75200    296.20813   -1162.3195    6534.9893    11700.702    1880.7871 
   75300    301.15308   -1156.2679    6362.3002    11639.706    1871.0517 
   75400    294.21143      -1161.3    6439.1727    11563.249      1880.54 
   75500    302.72814   -1162.3392    6409.0216    11714.005    1898.7602 
   75600    298.18588   -1156.9678    6458.2505    11671.566    1954.1981 
   75700    301.70625   -1155.3746    6482.3849    11772.502    1911.7542 
   75800    299.21904   -1150.7839    6429.0561    11670.628    1982.1589 
   75900    298.08825   -1153.5781    6256.8496     11471.47    1914.3478 
   76000    302.71114   -1154.1851    6401.2154    11713.989    1869.0957 
   76100    295.96672   -1157.5305    6472.8632    11638.207    1824.1766 
   76200    302.40665   -1165.1424    6390.3203    11685.632    1879.5361 
   76300    306.25794   -1159.8174     6564.089    11947.003    1986.5018 
   76400    298.25875   -1167.0951    6467.9665    11672.712    1895.5366 
   76500    295.28209   -1168.1125    6395.3164    11535.453    1894.4695 
   76600    301.81061   -1161.1221    6481.3818     11767.98    1984.4637 
   76700    297.89311   -1163.6407    6394.8547    11595.243    1846.7632 
   76800    296.86097     -1158.24    6461.1219    11644.861    1890.5128 
   76900    303.18474    -1158.873    6403.6729    11721.877    1989.9522 
   77000    305.11975   -1164.0043    6348.4067    11702.818    1878.5524 
   77100    300.11648   -1168.9682    6468.0582    11710.618      1917.62 
   77200    297.64811   -1165.9558    6505.2831    11698.122    1898.2748 
   77300    307.04973   -1165.4673    6399.5811     11793.76    1943.7836 
   77400    302.67153   -1168.8427    6292.1264    11589.396    1830.6429 
   77500    297.08287   -1163.3102    6484.3392    11667.749    1956.1673 
   77600    299.75575   -1161.2244    6547.1706    11789.768    1936.1483 
   77700    305.47179   -1162.8061    6431.3851    11794.515    1928.7389 
   77800    297.67774   -1163.0092    6353.5146    11549.934    1872.0811 
   77900    300.93174   -1156.2699    6406.1874    11678.862    1899.5558 
   78000    309.86291   -1153.7182    6502.1409    11968.168    1952.4678 
   78100    297.51006   -1159.4649     6469.493    11665.874    1915.2423 
   78200    300.07061   -1158.9117    6448.2171    11699.853    1950.2161 
   78300    302.70105   -1156.8485    6413.9895    11723.885    1892.0152 
   78400    301.16635   -1160.4401    6472.6517    11746.169    1897.1589 
   78500    297.30624   -1159.0842    6338.2884    11530.696    1860.7532 
   78600    300.82683   -1153.5524    6316.3256    11589.477    1884.9796 
   78700    300.84344   -1148.5661     6509.277    11787.769    1923.0809 
   78800    299.72473   -1154.5406    6470.6516     11719.27    1952.8825 
   78900     301.1173   -1148.9086    6386.2375    11670.238    1945.4865 
   79000    299.95609   -1154.5993    6408.6258    11662.128    1899.4968 
   79100    296.82863   -1154.7058    6378.1288    11564.711    1872.3945 
   79200    303.24223   -1155.4466     6508.528    11831.386    1971.3024 
   79300     295.2666   -1157.6544    6487.6902    11637.954    1879.2929 
   79400    298.86694   -1158.7039    6381.2711    11607.401    1866.4411 
   79500    301.48002   -1157.4675    6411.5759    11694.766    1929.5609 
   79600    302.57713   -1155.1522     6441.917    11750.861    1919.8517 
   79700     294.4542   -1155.6524    6458.3445    11593.254    1869.9886 
   79800    302.25788   -1152.7536    6439.4238    11743.946    1905.7524 
   79900    293.67548   -1155.0346    6378.9046    11497.796    1917.9839 
   80000    307.05742   -1159.0962     6400.801    11801.515    1869.4117 
   80100    299.47133   -1162.4781    6349.7614    11585.029    1878.1272 
   80200    298.71967     -1163.93    6469.2478    11687.005    1886.0338 
   80300    307.12475   -1163.8658    6448.7389    11846.122    1834.8812 
   80400    300.59455   -1165.1609    6479.0978    11735.678    1890.4317 
   80500    297.40952   -1170.1128    6427.4198    11611.005    1932.9999 
   80600    303.48962   -1176.2942    6280.7127    11588.009    1847.3907 
   80700    293.76168   -1165.3296    6494.0607    11604.499    1992.2349 
   80800    302.79178    -1163.792    6343.0907    11647.981    1925.2654 
   80900    299.79841   -1162.0613    6409.6381     11652.31    1920.6226 
   81000     300.1398   -1164.0752     6324.844    11572.795     1911.838 
   81100     298.6066   -1169.7945    6401.7166    11611.194    1882.6207 
   81200    304.73077   -1168.6152    6423.3787    11764.869    1901.8563 
   81300    297.11295   -1170.9129    6398.9996    11575.449    1867.3855 
   81400    301.37896   -1164.6471    6435.8262    11709.678    1848.2815 
   81500    299.81031   -1159.2732    6433.2498    11678.964    1823.6523 
   81600    296.51501   -1163.7701    6354.8655    11525.684    1822.1207 
   81700     298.7881   -1161.4936    6458.9349    11680.591    1865.9419 
   81800    300.04824   -1162.9862    6405.1067    11652.191    1874.7186 
   81900    302.18036   -1156.9793     6356.586    11655.226    1906.1662 
   82000    297.83802   -1154.5365    6394.4258    11602.742    1911.1677 
   82100    304.42195   -1150.1228    6430.3514    11783.736    1860.8844 
   82200    298.42554   -1152.3472     6380.631    11603.688    1869.1346 
   82300    300.04289   -1153.8135    6397.8264    11653.969    1877.0411 
   82400    293.19472   -1158.9132    6525.0562    11629.798    1920.9664 
   82500    300.37995   -1155.6379    6510.1308     11771.65    1843.1089 
   82600    302.24424   -1149.7044    6460.4671    11767.747    1798.4944 
   82700    295.25233   -1147.4453    6401.8092    11561.977     1830.913 
   82800    303.23045   -1148.2326    6357.1835    11687.004     1898.001 
   82900    302.77551    -1150.774    6360.0287    11677.589    1857.4093 
   83000    302.06727   -1150.5986    6381.7359    11684.341    1839.6825 
   83100    299.02934   -1148.5742    6544.0291    11783.758     1848.366 
   83200    295.83821   -1151.3215    6486.3552    11655.163    1911.2002 
   83300    300.68171   -1157.8711    6355.4912    11621.223    1913.4088 
   83400    300.92282    -1153.093    6319.6277    11595.289    1900.5243 
   83500    299.39431   -1164.8366    6432.7882    11664.052    1902.4598 
   83600    299.51433   -1163.3491    6516.5624    11751.877    1936.3874 
   83700    299.49821   -1163.8454    6423.1756     11657.65    1874.0483 
   83800     302.1079   -1158.8454    6355.3645    11650.591    1854.9824 
   83900     300.5652   -1162.0639    6380.9137    11639.964    1871.5215 
   84000    296.35662   -1160.8814    6344.2846    11514.608    1835.4942 
   84100    302.14862   -1152.8281    6495.6782    11797.792    1929.3228 
   84200    297.60061   -1164.0983    6342.1129    11535.795    1872.1192 
   84300    303.96019   -1164.9923    6420.2173    11748.868    1873.6837 
   84400    300.24372   -1163.5134    6478.2726    11729.006    1895.0174 
   84500    295.21952    -1170.787     6421.369    11557.494    1909.0215 
   84600    300.59348   -1168.4912    6403.1429     11656.37    1904.0539 
   84700    298.44364   -1165.8199    6456.3191     11666.29    1899.2598 
   84800     301.6235   -1166.7133    6369.9021    11646.912     1968.727 
   84900    296.93584   -1159.2994    6342.4858    11526.765    1961.5229 
   85000    304.11569   -1159.6006    6335.8579    11673.222    1965.1378 
   85100    297.45451   -1156.5877    6518.7088     11716.78    1987.4571 
   85200    303.76356   -1156.1144    6430.0094    11763.337    1935.4444 
   85300    294.36636   -1164.8853    6311.6333    11435.434    1887.6676 
   85400    300.64327   -1161.2297    6424.9129    11686.465    1947.5292 
   85500    298.52934   -1165.0803    6513.2921    11725.833    1944.3476 
   85600    301.46688   -1160.7828    6441.9381    11721.533    1888.5961 
   85700    295.95735   -1163.1948    6303.1389    11462.619    1805.0947 
   85800    300.70421   -1160.6625    6496.7015    11760.123    1869.6692 
   85900    303.97105    -1158.758    6532.4164    11867.534    1931.8531 
   86000    301.74566   -1154.1199    6419.7323    11711.945    1903.9136 
   86100    301.86661   -1154.7833    6296.9238    11591.057    1824.1941 
   86200    300.44638   -1154.4682    6443.0914    11707.199    1860.9059 
   86300     300.0215   -1158.4615    6397.5917    11648.629    1874.8553 
   86400    299.61505   -1164.8766    6452.2134    11688.153    1882.0215 
   86500    300.32015   -1161.6784    6486.9802    11741.181    1885.8301 
   86600    303.73893   -1161.4071    6416.8489    11744.358     1888.491 
   86700    306.75726   -1161.4123    6413.4668    11805.453    1881.3245 
   86800    299.47408   -1154.9565     6525.756    11768.604    1878.0995 
   86900    301.97395   -1156.2131    6390.9555    11685.952    1816.4229 
   87000    295.84734   -1150.7409    6403.2288    11572.812    1848.2238 
   87100     302.4243   -1153.4031    6430.0093    11737.437    1876.5691 
   87200    299.27079   -1159.9846    6415.3239    11648.801    1872.0819 
   87300    302.51736   -1163.1433    6438.7506    11738.426    1896.9919 
   87400     297.1146   -1161.3725    6443.4644    11629.489    1915.0133 
   87500    296.10704   -1164.4882    6374.1328    11535.517    1823.3243 
   87600    299.48014   -1161.9949    6394.0586    11629.997     1911.938 
   87700    301.77842   -1157.8076    6476.1342     11765.36    1991.4064 
   87800    296.91003   -1157.5521    6431.4799    11616.955    1909.1632 
   87900    303.60031   -1161.1734    6317.1707    11641.952    1906.5155 
   88000    299.10743   -1158.0643    6475.8884    11707.796    1969.0476 
   88100    297.08027   -1160.0186    6555.5593    11742.205    1943.3797 
   88200    300.14089    -1162.236    6352.7691    11602.583    1865.7741 
   88300    299.34383   -1163.3585    6390.1466     11621.81    1947.2918 
   88400    302.65304    -1164.821    6345.9473    11646.844    1940.4462 
   88500    298.72413   -1165.3829    6463.9867    11680.386      1913.55 
   88600    301.19078   -1161.4254    6476.1106    11749.164    1934.7273 
   88700    301.05796   -1163.1264    6395.5405    11664.056    1913.0169 
   88800    299.43823   -1162.3016    6451.5724    11686.309    1897.5496 
   88900    305.18221   -1162.3609    6475.3792    11832.768    1988.6429 
   89000    301.72626   -1156.1939    6452.4783    11742.203    1919.2522 
   89100    300.31842   -1166.5037    6423.2965    11672.635     1817.539 
   89200    303.58882   -1166.4908    6429.4084    11748.627    1913.1117 
   89300    297.15162    -1170.236    6411.1966    11589.149    1886.0403 
   89400    299.80905   -1159.7497      6424.94    11670.151     1866.633 
   89500    302.76785   -1161.1718    6406.1165    11713.115    1834.1122 
   89600    301.94065   -1163.9565    6509.0136    11795.556    1888.6652 
   89700    300.35848   -1162.1959    6332.7131    11587.215    1835.4766 
   89800     299.3361   -1161.8089    6274.6964    11507.744    1841.8241 
   89900     295.2097    -1157.809     6496.481    11645.374    1881.6471 
   90000    299.07609   -1163.9412    6382.1376    11607.498    1813.7936 
   90100    305.81064    -1162.661    6447.9489    11818.463      1860.59 
   90200    297.98121   -1161.8675    6544.6422    11748.686    1885.3289 
   90300    294.85134   -1160.5607    6409.7778    11548.264    1837.0031 
   90400    300.63884   -1162.8048    6331.2514    11591.134    1828.0022 
   90500    298.65603   -1162.7773    6469.5861    11687.137    1889.7605 
   90600    297.12758   -1152.9899      6419.66    11614.345    1931.9995 
   90700    305.42505   -1155.5901    6352.8335    11722.181    1893.6432 
   90800    298.90927   -1154.6696    6412.6809    11643.749    1901.5889 
   90900    304.33992    -1148.268    6395.1665    11748.654    1888.4938 
   91000    301.16752   -1146.6464    6426.9485    11714.284    1911.4498 
   91100    301.29872   -1153.0639    6334.5811    11618.302    1804.2508 
   91200    298.86378    -1157.475     6424.603    11651.894    1900.5282 
   91300    305.07421   -1147.1228    6430.0774    11800.397    1854.1706 
   91400    303.62635   -1158.9394     6509.574    11837.146    1783.3023 
   91500    296.05517   -1162.8512    6458.9013    11620.815    1810.2788 
   91600    302.47048   -1161.0142    6442.8148    11743.618    1925.3168 
   91700    296.36771   -1152.0781    6319.9764     11499.34     1788.211 
   91800    301.39875   -1149.7753    6410.0419    11699.188    1905.7287 
   91900    296.71332   -1155.4559    6411.3056    11594.675     1910.017 
   92000    298.97084   -1155.0816     6450.036    11682.008    1853.8698 
   92100    295.82443    -1155.217    6363.5045    11528.123    1835.3541 
   92200    302.45305   -1167.2109    6476.2959     11770.53    1920.8812 
   92300     294.3748   -1165.2763    6280.1315    11403.721    1805.8883 
   92400    305.39425   -1169.7888     6408.156    11762.647    1894.2291 
   92500    299.98285   -1162.3064    6533.2107    11779.578    1898.4181 
   92600    301.23481   -1163.3224    6489.5021    11761.599    1848.4587 
   92700    298.77788   -1161.5328    6458.6052    11680.003    1845.1955 
   92800    302.27558   -1166.7593    6324.3704    11615.265    1899.2873 
   92900    296.00136   -1161.3842    6318.1337    11480.364    1834.4567 
   93000    300.56856   -1166.2862    6433.8589    11688.759    1858.3947 
   93100    302.02726   -1164.9868    6432.9057    11720.268     1866.993 
   93200    298.28081   -1170.0551    6439.8334     11642.09    1902.2842 
   93300    306.45819   -1168.3368    6490.7379     11869.41    1928.5677 
   93400    297.40481   -1175.1049    6300.1624    11478.655    1825.1355 
   93500    296.09465   -1164.7612    6397.3379    11558.184    1896.9208 
   93600    300.81754   -1158.6884    6451.0613    11718.878    1848.0563 
   93700    303.54766    -1166.141    6532.7647    11851.454    1960.0938 
   93800    295.42077   -1165.5178    6301.0435    11446.737     1927.205 
   93900    304.53132   -1163.9644     6316.168    11658.048    1890.6673 
   94000    303.59168    -1161.655    6443.5004    11767.616    1913.1846 
   94100    296.08845   -1157.0268    6434.1211     11602.57    1843.8044 
   94200    302.89949   -1162.8987    6440.5142    11748.598    1838.9922 
   94300    301.43974   -1159.7449    6453.6674     11733.72    1894.0195 
   94400    298.90859   -1158.5769    6391.4051    11618.552    1868.2701 
   94500    303.73705   -1154.9628    6455.2342    11789.147    1935.4497 
   94600    298.94695   -1152.6442    6470.5635    11704.462    1916.3239 
   94700    300.29117   -1150.4261    6439.8489    11704.683    1944.7898 
   94800    296.77492   -1155.6396    6416.3361    11600.837    1907.2893 
   94900    295.86012   -1153.6617    6497.3971    11664.333     1841.016 
   95000    302.99625    -1156.575    6455.0493    11771.524    1873.3569 
   95100    302.75054   -1154.5925    6428.4936    11741.702    1874.0245 
   95200    300.25392   -1158.1629    6440.0253    11696.327    1883.7406 
   95300    300.43506   -1161.5639    6417.6248    11674.395    1851.1484 
   95400    298.16208   -1158.0966    6461.8427    11673.521    1881.9747 
   95500     297.5169   -1155.4524    6357.5633    11558.103    1821.1996 
   95600    303.05366   -1161.5661    6460.1662    11772.877    1919.7939 
   95700    296.94985   -1159.5807    6438.6663    11622.964    1968.9094 
   95800    303.76889   -1159.1579    6383.8106    11714.209    1900.1094 
   95900    294.96156    -1161.547    6480.3759     11620.23    1865.0244 
   96000    304.43517   -1162.9404    6477.7186    11818.568    1913.5206 
   96100    301.97446   -1165.8309    6371.8901     11657.28      1951.04 
   96200    301.64336   -1170.9668    6357.8316    11631.012    1893.1192 
   96300    299.61021   -1174.0475    6380.1817    11606.847    1887.3317 
   96400    299.55307   -1172.1085    6497.7216    11725.105     1889.424 
   96500    300.62345   -1162.9042    6388.3288    11647.783    1827.7394 
   96600     297.7948   -1165.1245    6342.8776    11539.682    1874.2687 
   96700    300.19991   -1159.8511    6475.8965    11729.356    1917.1923 
   96800    302.86607   -1167.3023    6384.4381    11687.405    1834.0499 
   96900    292.53557   -1164.8999    6353.7059     11438.38    1842.8708 
   97000    300.00848    -1164.521    6360.4116    11605.111    1897.8665 
   97100    299.15513   -1163.7158    6428.4184    11655.693    1856.7125 
   97200    299.72874   -1168.6798    6327.0549     11561.62    1815.3111 
   97300    299.76411   -1172.0543    6464.1131    11696.059    1892.3173 
   97400     306.8287   -1159.0006    6469.5326    11865.456     1882.342 
   97500    298.00189   -1159.1173    6411.7058    11618.942    1840.3649 
   97600    299.88102   -1160.6917    6374.6144    11620.421    1941.4748 
   97700    298.47755   -1156.6509    6391.3571    11611.221    1944.9721 
   97800    300.54883   -1155.7873    6539.2129     11804.19    1924.1838 
   97900    301.90431   -1157.4976      6444.88    11737.105    1890.8908 
   98000     299.6965   -1158.4989    6398.5903    11642.647    1862.6142 
   98100    298.77957   -1157.7095    6506.7511    11732.009     1808.357 
   98200    299.80392   -1157.5911    6483.7537    11731.013    1873.0671 
   98300    304.95743   -1153.1635     6426.886     11788.67    1943.0462 
   98400    298.57638   -1156.6604    6467.9948    11689.961    1949.6906 
   98500     301.7283   -1147.6536    6313.1673    11611.476    1907.6203 
   98600    297.95736   -1150.3619    6528.7361    11743.776    2033.1035 
   98700    302.40116   -1156.1795     6450.532    11754.689    1946.6922 
   98800    296.29439   -1154.5949    6430.3678    11605.648    1896.7097 
   98900    305.77799   -1158.7204    6388.5593    11762.317    1903.6729 
   99000     297.5784   -1160.5611    6389.6052     11586.35    1850.0561 
   99100    298.25176   -1163.9797    6439.7408    11647.452    1842.3417 
   99200    306.65063   -1167.1918    6434.8927    11818.821    1902.1493 
   99300    296.10118   -1161.6202    6401.1263    11565.253     1822.088 
   99400    296.70604   -1166.3561    6350.7703    11523.084    1809.1289 
   99500    298.70426   -1170.3502    6483.5681    11694.576    1893.5879 
   99600     304.2544   -1167.0495    6426.7164    11759.595     1862.606 
   99700    297.52062   -1164.0228    6376.4487    11568.497    1837.6909 
   99800    304.07424   -1165.7132    6409.7915    11740.158    1932.6175 
   99900    294.21689   -1168.6742    6437.8331    11554.651    1880.3082 
  100000    296.72817   -1166.2182     6454.422    11627.346         1920 
  100100     303.0673   -1169.8391    6299.5468    11604.276    1861.2323 
  100200    299.87053   -1163.1889    6445.2236    11688.308     1899.034 
  100300    301.25958   -1166.3581    6391.4918    11661.082    1830.8163 
  100400    301.68725   -1170.1415    6366.8514    11641.795    1818.6984 
  100500    297.40869   -1166.4593    6465.2469    11652.468    1915.3386 
  100600    302.07141   -1165.9128     6524.867    11812.246    1999.0346 
  100700    297.71057   -1158.1574    6384.4679     11586.44    1899.0363 
  100800    298.66035   -1154.3141    6366.1129    11592.219    1924.9411 
  100900    300.39063   -1166.7652     6489.242    11739.862    1938.9839 
  101000    299.04156   -1159.1484    6423.2191    11652.635    1874.6788 
  101100    300.08756   -1158.2566    6409.8548    11662.509    1903.9273 
  101200     302.0718   -1161.1481    6503.3929    11795.545    2004.7258 
  101300    298.54429    -1159.767    6385.1599    11603.334    1858.0252 
  101400    303.76685   -1155.1393    6421.6979    11756.071    1867.1198 
  101500    307.60213   -1155.7507    6429.4461    11845.143    1896.1711 
  101600    297.06138   -1155.0546    6463.9746    11655.181    1888.6646 
  101700    296.94598   -1154.5797    6439.1378    11628.353    1882.1775 
  101800    299.40878   -1155.1176    6331.7672    11573.059    1890.5935 
  101900    304.39041   -1145.8288    6444.9839    11801.989     1952.255 
  102000    299.85133   -1153.9544    6502.3434    11754.253    1817.2671 
  102100    298.92329   -1158.9574    6531.9924    11759.072    1888.0492 
  102200    300.00881   -1160.3357    6385.2273     11634.12    1834.1189 
  102300    297.41924   -1165.8524    6410.7984    11598.852    1798.3954 
  102400    301.39082   -1164.5825    6456.7304      11730.9    1900.7886 
  102500    299.12827   -1160.8435    6355.3837    11584.957    1888.3914 
  102600    305.27013    -1163.474    6404.5662     11762.72     1879.974 
  102700    298.02126   -1164.8863    6508.3413    11710.222    1878.5363 
  102800    302.00477    -1163.423    6450.4765    11738.922    1864.4024 
  102900    297.14458   -1164.1762    6323.0816    11506.943    1824.0038 
  103000    303.13917   -1160.4856     6446.492     11762.11    1948.3321 
[...]
  588400    301.28452   -1155.6812    6382.9684    11663.769    1862.0786 
  588500    298.65265   -1156.3166    6439.7469    11663.686    1943.3621 
  588600    301.70751   -1157.1042    6375.2287    11663.643    1929.6423 
  588700    299.02554   -1159.2975    6434.7534    11663.678    1931.5906 
  588800    301.93586   -1162.5787    6375.9404    11663.758     1963.006 
  588900    298.61116   -1162.1696     6446.524    11663.724    1968.4994 
  589000    300.63391   -1157.9725    6399.1707     11663.78    1908.1684 
  589100    298.37796   -1157.4479    6446.9069    11663.846    1903.2276 
  589200    299.44784   -1161.9314    6428.4434    11663.756    1892.0948 
  589300    300.07631   -1160.1537    6413.2824    11663.799    1863.0327 
  589400    298.93058   -1161.4269    6439.0751    11663.841    1877.0702 
  589500    300.08442   -1167.1094    6420.2476    11663.981    1900.8309 
  589600    300.94333    -1164.978    6399.7743    11663.989    1878.8373 
  589700     301.3643   -1160.7489    6386.5678    11664.005    1835.6414 
  589800    301.83219   -1172.3332    6388.1247    11663.973    1886.6842 
  589900    301.06731   -1172.1094    6404.3476    11664.079    1867.3539 
  590000    299.40754   -1166.1462    6433.8432     11664.08    1872.2447 
  590100    302.68665   -1170.4762    6368.0352    11663.995    1935.4009 
  590200    304.59074   -1168.1748    6325.0951    11664.034    1865.0422 
  590300    299.09259   -1168.0991    6442.5228    11664.078    1857.3288 
  590400    301.45279   -1172.9756    6396.9466    11664.047    1797.1074 
  590500    298.82433   -1168.2319    6448.3413    11664.033     1859.944 
  590600    299.98143   -1168.1089    6423.4559     11663.99    1872.0357 
  590700    297.98122   -1170.4535    6468.5412    11663.999    1926.9087 
  590800    301.48073   -1166.4985    6389.7366    11663.911    1899.1677 
  590900    298.93835   -1163.4309    6441.0793    11664.007    1887.7705 
  591000    301.46386   -1166.5419     6390.224    11663.995    1935.7834 
  591100     297.0737   -1161.9355    6479.2866    11663.875    1911.7053 
  591200    301.56221   -1165.8923    6387.3971    11663.919      1848.34 
  591300    298.90207   -1162.0241    6440.3268    11663.887    1855.5333 
  591400    299.60448   -1157.1995    6420.5383    11663.929    1927.5374 
  591500    300.28369   -1164.6558    6413.3833    11663.828    1853.6334 
  591600    298.91523   -1162.9921    6441.0422    11663.915    1820.6414 
  591700    299.92258   -1161.5077    6418.0546    11663.933    1856.6072 
  591800    297.41054   -1158.6884    6468.8553    11663.887    1919.3093 
  591900    299.45482   -1159.0285    6425.4472    11663.811     1910.074 
  592000    301.24692   -1160.4334    6388.6131    11663.858     1902.673 
  592100    299.29953   -1165.6573    6435.5009    11663.919    1921.3079 
  592200    301.08428   -1165.2288    6396.8276    11663.802     1864.681 
  592300    300.74119   -1164.2106    6403.1494    11663.813    1865.6393 
  592400    297.21882   -1163.8852    6478.1614      11663.9    1845.1107 
  592500    304.95419   -1160.5274    6309.5095    11663.861     1829.749 
  592600    297.28986   -1164.1134    6476.8985    11663.927    1957.0687 
  592700    299.69534   -1165.4876    6426.9062     11663.95    1925.0824 
  592800    300.20136   -1164.4476    6415.0665     11663.96    1931.1604 
  592900    298.87063   -1159.4869    6438.6018    11664.027    1969.1522 
  593000    303.49973   -1165.3836    6345.6104    11664.033    1917.6252 
  593100    294.07937   -1165.1544     6546.657    11664.057    1971.5501 
  593200     302.1613   -1167.6172    6376.4796    11664.075    1917.4605 
  593300    298.56417   -1169.2731     6454.901    11663.993    1935.0502 
  593400    301.01786   -1168.2523    6401.4852    11664.018    1887.6593 
  593500    298.78078   -1167.7154    6448.7797    11664.057    1922.9418 
  593600    296.57896   -1165.3869    6493.3819     11663.95      1876.32 
  593700    303.43806   -1169.3959     6350.915    11664.008    1881.3813 
  593800    302.02012   -1167.9794    6379.8486    11664.066    1884.1949 
  593900    296.78848   -1169.2829    6492.9196    11664.067    1930.3851 
  594000    299.29415   -1167.1431    6437.2546    11664.072    1854.5058 
  594100    298.10812   -1171.5014     6466.873    11663.994    1906.2138 
  594200    302.55774   -1164.5758    6364.8505    11663.957    1883.2721 
  594300    297.60098   -1169.9264    6476.1523    11664.014    1990.0586 
  594400    302.00239   -1169.3785    6381.4985    11663.938    1881.6254 
  594500      302.025   -1166.9369    6378.5558     11663.92    1932.0896 
  594600    300.69685   -1163.1303    6403.1543    11663.951    1967.0164 
  594700    296.55871   -1165.3937    6493.8469    11663.975    1927.7422 
  594800    299.89667   -1164.2754    6421.3856    11663.942    1894.6898 
  594900    297.39908   -1162.5969    6473.0543    11663.932    1960.6794 
  595000    299.02843    -1167.847    6443.4914    11663.928    1949.5496 
  595100    301.50186   -1164.7997     6387.569    11663.894    1888.7764 
  595200    300.71198   -1165.7409    6405.4761    11663.985    1900.0406 
  595300    300.28391   -1162.0525    6410.8918    11663.944    1933.3064 
  595400    300.36534   -1162.4059    6409.4683    11663.907    1956.8704 
  595500    301.67075   -1162.2366    6381.5506    11664.047    1857.9923 
  595600    298.94091   -1165.5649    6443.1587    11664.008    1970.4291 
  595700    299.42594   -1165.8038    6432.9218    11663.894    1910.4719 
  595800    303.08806    -1166.425    6355.3815    11663.968    1877.1467 
  595900    301.30964   -1171.2079    6398.2214    11664.032     1948.475 
  596000    300.96372   -1172.7052    6407.1339    11664.057    1914.2235 
  596100    295.79483   -1168.7145    6513.5235    11664.012    1865.4419 
  596200    302.74399   -1173.9608    6370.3029    11664.003    1911.8599 
  596300    295.35692   -1169.6944    6523.8497    11664.003    1963.9838 
  596400    301.71175   -1165.6105    6383.9913    11663.989     1893.353 
  596500    299.96011   -1162.3461    6418.2014    11664.043    1972.5738 
  596600    299.92648   -1161.6597    6418.2233    11664.033    1962.9334 
  596700    299.06659   -1168.1862    6443.0836    11663.996    1946.1544 
  596800    301.61796    -1168.815    6389.1994    11663.989    1935.1601 
  596900    301.18193   -1169.3859    6399.1965      11664.1    1959.0143 
  597000    297.82263   -1175.4801    6476.9688    11664.012    1877.5942 
  597100    301.06794   -1174.1617    6406.2834    11663.976    1890.9522 
  597200    300.43016   -1165.5856    6411.4052    11664.049    2028.1617 
  597300    298.82942   -1167.3127    6447.2128    11663.932    1987.0479 
  597400    298.94443   -1162.1838    6439.7078    11664.013    1992.9066 
  597500    299.01671   -1163.0952    6439.0339    11663.972    1978.8996 
  597600    300.90773   -1166.3837    6401.9533    11664.001    1901.3942 
  597700    302.15264   -1163.4449     6372.381    11663.964     1910.521 
  597800    296.06765   -1165.3639    6504.3825     11664.05    1984.9602 
  597900    302.02943    -1171.282    6382.8699    11663.983    1881.9029 
  598000    300.77095   -1160.5726    6398.9649    11663.902    1881.3851 
  598100    299.37089   -1165.9312    6434.2933    11663.962    1880.8097 
  598200    299.71655   -1166.8132    6427.7551    11663.926    1888.2706 
  598300    299.70603   -1166.3009    6427.4732    11663.932    1915.9031 
  598400    302.68192   -1166.4071    6364.0484    11663.976    1913.8115 
  598500    296.90534   -1163.2732    6484.2133    11663.867    1967.8966 
  598600    303.00884   -1162.9669    6353.6233    11663.975    1927.5538 
  598700     298.2412   -1160.2484    6452.7647    11663.982    2022.5778 
  598800    301.68829   -1166.8952    6385.7445    11663.957    1946.1094 
  598900    298.34045    -1163.893    6454.2835    11663.976    1964.9187 
  599000    303.07116    -1165.839    6355.1612    11663.973     1963.245 
  599100    299.05695     -1166.77    6441.8557    11663.979    1940.8716 
  599200    298.63859   -1166.2733    6450.2923    11663.974    1908.6073 
  599300    300.87358   -1163.0371     6399.419    11664.084    1979.8172 
  599400    300.70319   -1165.5635    6405.5455    11664.044    1970.2642 
  599500    299.35154   -1167.5854     6436.415    11664.016    1905.4642 
  599600    299.19283   -1164.7522    6436.9251    11663.969    1889.4686 
  599700    298.33656   -1166.8401     6457.378    11664.041     1957.419 
  599800    301.54954   -1161.4467     6383.255    11663.952    1909.2583 
  599900    302.98104   -1165.5016    6356.7048    11663.928    1838.9306 
  600000    298.83304   -1162.2192    6442.0692     11663.96    1928.2958 
Loop time of 276.881 on 8 procs for 300000 steps with 7168 atoms

Pair  time (%) = 137.434 (49.6366)
Bond  time (%) = 80.9511 (29.2368)
Neigh time (%) = 19.4884 (7.03855)
Comm  time (%) = 28.8961 (10.4363)
Outpt time (%) = 0.476174 (0.171978)
Other time (%) = 9.63474 (3.47974)

Nlocal:    896 ave 900 max 893 min
Histogram: 2 1 0 0 1 2 0 1 0 1
Nghost:    2841.75 ave 2846 max 2839 min
Histogram: 2 1 1 0 0 3 0 0 0 1
Neighs:    23627.1 ave 23934 max 23325 min
Histogram: 2 0 0 1 1 0 2 0 1 1

Total # of neighbors = 189017
Ave neighs/atom = 26.3696
Ave special neighs/atom = 157.056
Neighbor list builds = 3039
Dangerous builds = 0
# −−−−−−−−−−−−−− Flux calculation in nve −−−−−−−−−−−−−−−
reset_timestep  0
compute         PE all pe/atom
compute         KE all ke/atom

variable        CX atom (vx*(c_KE+c_PE))
compute         Jcx all reduce sum v_CX

variable        CZ atom (vz*(c_KE+c_PE))
compute         Jcz all reduce sum v_CZ

variable        CY atom (vy*(c_KE+c_PE))
compute         Jcy all reduce sum v_CY

compute         SA all stress/atom virial

variable        VX atom -(c_SA[1]*vx+c_SA[4]*vy+c_SA[5]*vz)*1.4593e-5
compute         Jvx all reduce sum v_VX

variable        VZ atom -(c_SA[3]*vz+c_SA[6]*vy+c_SA[5]*vx)*1.4593e-5
compute         Jvz all reduce sum v_VZ

variable        VY atom -(c_SA[2]*vy+c_SA[6]*vz+c_SA[4]*vx)*1.4593e-5
compute         Jvy all reduce sum v_VY

variable        Jx equal (c_Jcx+c_Jvx)/vol
variable        Jz equal (c_Jcz+c_Jvz)/vol
variable        Jy equal (c_Jcy+c_Jvy)/vol

fix             JJTx all ave/correlate $s $p $d                 v_Jx type auto file J0Jt_tx.dat ave running
fix             JJTx all ave/correlate 5 $p $d                 v_Jx type auto file J0Jt_tx.dat ave running
fix             JJTx all ave/correlate 5 20000 $d                 v_Jx type auto file J0Jt_tx.dat ave running
fix             JJTx all ave/correlate 5 20000 100000                 v_Jx type auto file J0Jt_tx.dat ave running

fix             JJTz all ave/correlate $s $p $d                 v_Jz type auto file J0Jt_tz.dat ave running
fix             JJTz all ave/correlate 5 $p $d                 v_Jz type auto file J0Jt_tz.dat ave running
fix             JJTz all ave/correlate 5 20000 $d                 v_Jz type auto file J0Jt_tz.dat ave running
fix             JJTz all ave/correlate 5 20000 100000                 v_Jz type auto file J0Jt_tz.dat ave running

fix             JJTy all ave/correlate $s $p $d                 v_Jy type auto file J0Jt_ty.dat ave running
fix             JJTy all ave/correlate 5 $p $d                 v_Jy type auto file J0Jt_ty.dat ave running
fix             JJTy all ave/correlate 5 20000 $d                 v_Jy type auto file J0Jt_ty.dat ave running
fix             JJTy all ave/correlate 5 20000 100000                 v_Jy type auto file J0Jt_ty.dat ave running

run             1000000
Memory usage per processor = 13.8919 Mbytes
Step Temp E_pair E_mol TotEng Press 
       0    298.83304   -1162.2192    6442.0692     11663.96    1928.2958 
     100    300.68952   -1166.0977    6406.3415    11664.014    1905.3085 
     200    297.91445   -1166.3728    6465.8387    11663.951    1866.1894 
     300    301.26865   -1169.2525    6397.0536    11663.944    1828.2016 
     400    301.33757   -1163.0142    6389.2918    11663.893    1942.8334 
     500    301.75845   -1167.3132    6384.6575    11663.951    1884.3705 
     600    299.09735   -1164.1477    6438.2845    11663.893    1888.3054 
     700    299.26277   -1169.9228    6440.5111    11663.878    1922.4697 
     800    299.42538   -1163.8317     6431.027    11663.959    1909.3548 
     900    302.12953   -1162.9913    6372.3226    11663.865      1900.11 
    1000    295.20983   -1157.3958    6514.6701    11663.979    2008.2607 
    1100    304.00182   -1165.6644    6335.0258    11663.894    1931.1738 
    1200    296.02303   -1165.3536    6505.2167    11663.941    1910.8328 
    1300    298.13709   -1168.2558    6463.0008    11663.986    1961.4392 
    1400    301.00176   -1164.6238    6398.1138    11663.931    1899.3007 
    1500    301.12896   -1168.6401    6399.3844    11663.902    1868.1115 
    1600    298.69179   -1166.2322       6449.1     11663.96    1938.2868 
    1700    302.53247   -1164.2033    6365.0406    11663.979    1936.4204 
    1800    298.66928   -1159.9103    6443.1543    11663.855    1915.4379 
    1900    298.32541    -1165.301    6456.0103    11663.974    1939.9213 
    2000    301.62563   -1165.0328    6385.2645    11664.001    1945.0369 
    2100    297.66788   -1166.9348    6471.6993    11663.982    1916.7462 
    2200    302.47943   -1165.0586    6367.0053    11663.956    1907.1182 
    2300     300.3306   -1163.8599    6411.7211    11663.964    1914.3739 
    2400    297.13054   -1165.5057     6481.842    11664.074    1843.9538 
    2500    299.22136   -1165.5028    6437.0926    11663.995     1863.492 
    2600    301.08213   -1164.4998    6396.2753    11663.933    1943.2099 
    2700    301.30469     -1168.02    6395.0427    11663.935    1841.5888 
    2800    299.92847   -1161.7327    6418.1761    11663.955    1805.5072 
    2900    298.27075   -1162.4941    6454.3673     11663.97    1889.2364 
    3000     297.9903   -1163.9137    6461.7407    11663.933    1904.0955 
    3100    300.47558   -1158.2835    6403.0601    11663.976    1864.3416 
    3200    297.25463   -1159.7844    6473.2415    11663.846    1895.8418 
    3300    301.75801   -1160.9641    6378.1949    11663.828     1942.638 
    3400    300.60982   -1154.7934    6396.5101    11663.784    1940.4614 
    3500    298.48057   -1156.7478    6444.0455    11663.877    1910.0053 
    3600    299.33287   -1164.0345    6433.1468      11663.9    1914.4652 
    3700    297.59618   -1159.5278    6465.6305    11663.789    1864.5559 
    3800    299.50384   -1160.8522     6426.188    11663.776     1863.152 
    3900    298.59516   -1160.8045    6445.5497    11663.773    1930.1182 
    4000    301.66985   -1156.4325     6375.566    11663.847     1907.515 
    4100    297.05644   -1157.9977    6475.5603    11663.718    1918.5696 
    4200    301.39178   -1160.6288    6385.6426    11663.787     1882.696 
    4300    298.90965   -1162.1627    6440.2335    11663.817    1861.0887 
    4400    298.87584   -1161.9513    6440.7322    11663.805    1866.3506 
    4500    298.74925   -1162.6463    6444.1103    11663.783    1891.9827 
    4600     300.5008    -1164.696    6408.8794    11663.922    1912.2827 
    4700    298.39131   -1160.8489    6450.0774    11663.901    1889.8621 
    4800    300.77535   -1163.2542    6401.5176    11663.867    1888.9366 
    4900    301.27757   -1163.1669    6390.7822    11663.948    1932.2473 
    5000    298.97684   -1163.6962    6440.4824    11663.968    1889.6612 
    5100    297.99883   -1161.2179    6458.8207     11663.89    1911.1258 
    5200      300.543   -1157.4947    6400.7968    11663.942    1942.9393 
    5300    300.91151   -1159.0984    6394.5011    11663.915    1856.9545 
    5400    296.58879   -1168.6801    6496.4884    11663.973      1845.66 
    5500    301.31427   -1166.4904    6393.3493    11663.976    1811.4564 
    5600    300.35427    -1164.279    6411.6936    11664.023    1833.6973 
    5700    301.02582   -1167.9023    6400.8164    11663.869    1738.4047 
    5800    295.42009   -1163.1225    6515.8021    11663.877     1862.331 
    5900    300.90167    -1160.624     6396.239    11663.918    1939.4932 
    6000    298.90575   -1161.3525    6439.5996     11663.91    1918.6221 
    6100    299.52823   -1165.3572    6430.2346    11663.838    1828.4915 
    6200    299.86307   -1159.0027    6416.8602    11663.972    1864.6991 
    6300    299.46325   -1161.5853     6427.887    11663.874    1865.0056 
    6400    301.83906   -1161.5138    6376.9944    11663.809    1850.6393 
    6500    296.23003   -1157.0893    6492.3555    11663.766    1902.8935 
    6600    298.65429   -1157.2195    6440.7941    11663.865    1895.5742 
    6700    299.98232   -1157.6092    6412.7395    11663.792    1883.7688 
    6800    296.49847   -1157.7795    6487.3231    11663.778    1931.4091 
    6900    300.43404     -1156.59    6402.1143    11663.837     1920.064 
    7000    301.08688   -1158.1203    6389.6787    11663.818    1863.4623 
    7100    301.23081   -1160.4394    6388.9453     11663.84    1875.0706 
    7200    298.87754   -1151.9903    6430.6975    11663.767    1874.5334 
    7300     297.2125   -1157.8672    6472.2494    11663.871     1875.155 
    7400     302.0924   -1157.3399    6367.4409    11663.842    1865.4431 
    7500    305.59511   -1160.0644    6295.3576    11663.864    1835.9172 
    7600    297.02857   -1160.2752    6478.5177    11663.802    1815.5332 
    7700    297.10767   -1159.1741     6475.781    11663.856    1849.0518 
    7800    303.90428   -1165.8665    6337.2769    11663.859    1840.6256 
    7900    295.35544   -1160.9819    6515.0166     11663.85    1962.7652 
    8000    300.26906   -1163.4903    6412.5281    11663.825    1908.7382 
    8100    302.59517   -1164.6444    6364.0693    11663.906     1943.196 
    8200    299.57275   -1169.6268    6433.6209    11663.906    1950.2923 
    8300    299.72702   -1169.0378    6429.7001     11663.87    1894.2688 
    8400    298.85574   -1161.0683    6440.3754    11663.901    1821.0998 
    8500    295.29125   -1167.3065       6522.9    11664.038    1920.7436 
    8600    302.20009   -1168.4053    6376.2295    11663.865    1865.9639 
    8700    299.68675   -1162.6538    6424.3051    11663.999    1917.1376 
    8800    300.58765   -1160.4017    6402.7742    11663.966     1932.469 
    8900    301.87209   -1164.9478    6379.8583    11663.945    1887.0205 
    9000    297.59205   -1161.4362    6467.8224    11663.984    1870.7161 
    9100    299.75959   -1161.2117     6421.242    11663.934    1899.1867 
    9200     304.8509   -1164.1784    6315.4091    11663.902    1896.0185 
    9300    297.37003    -1168.973    6479.9891    11663.871    1923.5291 
    9400    298.32608   -1169.8813     6460.495    11663.893    1871.1702 
    9500    299.54654   -1163.2097    6427.8168    11663.959    1925.0592 
    9600    299.05098   -1166.6148     6441.743    11663.894    1912.3236 
    9700    299.17555   -1165.5512    6437.9739    11663.849    1884.5522 
    9800    300.09302   -1160.7353    6413.5701    11663.862    1911.3183 
    9900    298.51287   -1160.3198    6446.8411    11663.791    1919.9074 
   10000    299.46135    -1153.703    6419.9688    11663.798     1851.198 
Loop time of 1399.69 on 8 procs for 1000000 steps with 7168 atoms

Pair  time (%) = 564.027 (40.2964)
Bond  time (%) = 297.288 (21.2395)
Neigh time (%) = 65.2922 (4.66475)
Comm  time (%) = 101.412 (7.2453)
Outpt time (%) = 0.00352561 (0.000251885)
Other time (%) = 371.673 (26.5538)

Nlocal:    896 ave 902 max 889 min
Histogram: 1 0 1 1 0 0 3 1 0 1
Nghost:    2847.75 ave 2854 max 2843 min
Histogram: 2 1 0 1 2 0 0 0 0 2
Neighs:    23605.8 ave 24040 max 23263 min
Histogram: 1 1 2 0 1 1 0 0 0 2

Total # of neighbors = 188846
Ave neighs/atom = 26.3457
Ave special neighs/atom = 157.056
Neighbor list builds = 10155
Dangerous builds = 0
