LAMMPS (11 Jun 2012)
# Initialization
atom_style      full
units           real
variable        T equal 300
variable        dt equal 1.0
variable        seed equal 123456
variable        radius equal 0.5
variable        sizet equal 4
variable        sizeb equal -4
variable        p equal 20000     # correlation length
variable        s equal 5         # sample interval
variable        d equal $p*$s     # dump interval
variable        d equal 20000*$s     variable        d equal 20000*5     
# convert from LAMMPS real units to SI
variable        kB equal 1.3806504e-23    # [J/K] Boltzmann
variable        kCal2J equal 4186.0/6.02214e23
variable        A2m equal 1.0e-10
variable        fs2s equal 1.0e-15
variable        convert equal ${kCal2J}*${kCal2J}/${fs2s}/${A2m}
variable        convert equal 6.9510174124148567155e-21*${kCal2J}/${fs2s}/${A2m}
variable        convert equal 6.9510174124148567155e-21*6.9510174124148567155e-21/${fs2s}/${A2m}
variable        convert equal 6.9510174124148567155e-21*6.9510174124148567155e-21/1.0000000000000000777e-15/${A2m}
variable        convert equal 6.9510174124148567155e-21*6.9510174124148567155e-21/1.0000000000000000777e-15/1.0000000000000000364e-10
variable        b_eq equal 10.0/3.0

# setup problem
dimension       3
boundary        p p p
neighbor        2    bin
pair_style      lj/cut 10.0
bond_style      morse
read_data       lammps.data
  9 = max bonds/atom
  orthogonal box = (0 0 0) to (80 80 80)
  2 by 2 by 2 MPI processor grid
  3584 atoms
  16848 bonds
  10 = max # of 1-2 neighbors
  86 = max # of 1-3 neighbors
  824 = max # of 1-4 neighbors
  164 = max # of special neighbors
pair_coeff      1 1 0 4.75
bond_coeff      1 10 1.8 ${b_eq}
bond_coeff      1 10 1.8 3.3333333333333334814
bond_coeff      2 5 0.805 7.4536
velocity        all create $T ${seed} mom yes rot yes dist gaussian
velocity        all create 300 ${seed} mom yes rot yes dist gaussian
velocity        all create 300 123456 mom yes rot yes dist gaussian
timestep        ${dt}
timestep        1
thermo          100
dump            T1 all cfg 600000 *.cfg id type xs ys zs
dump            T2 all xyz 10000 traj.xyz
#dump_modify    1 element Cu
# −−−−−−−−−−−−− Equilibration and thermalisation −−−−−−−−−−−−−−−−
fix             NVT all nvt temp $T $T 10
fix             NVT all nvt temp 300 $T 10
fix             NVT all nvt temp 300 300 10
run             300000
Memory usage per processor = 10.9046 Mbytes
Step Temp E_pair E_mol TotEng Press 
       0          300            0 6.3694801e-05    3204.0728    287.12305 
     100    250.06308            0    3589.7865    6260.5208    1224.9413 
     200    296.04512            0    5037.0464      8198.88    714.71826 
     300    300.05936            0    4209.7654    7414.4721    416.01975 
     400    300.02314            0    3151.1072    6355.4271    563.14782 
     500    300.27697            0    2743.3188    5950.3496    758.32576 
     600    298.21061            0    2831.3528    6016.3144    778.09849 
     700    299.94051            0    3274.8615    6478.2989    733.54729 
     800    298.22198            0     3603.275    6788.3581    752.01509 
     900    299.86649            0    3453.1477    6655.7945    738.87875 
    1000    302.56566            0    3248.4202    6479.8948    700.75801 
    1100    294.72363            0    3180.9448    6328.6646    802.45213 
    1200    300.29844            0    3068.3561    6275.6163    783.47565 
    1300    302.51626            0    3147.6753    6378.6223    720.68924 
    1400    294.82235            0    3285.0075    6433.7817    776.14169 
    1500    305.52701            0    3499.2062    6762.3087    894.39849 
    1600    288.85803            0    3324.6615    6409.7352    850.97911 
    1700    301.71347            0    3116.3657    6338.7387    822.90006 
    1800    296.72241            0    3197.4092    6366.4765    887.84623 
    1900    306.06675            0     3223.545    6492.4121    839.75434 
    2000    301.14146            0    3265.4429    6481.7067    892.22139 
    2100    296.42963            0    3239.6426    6405.5829    916.67712 
    2200    299.91772            0    3122.8561      6326.05    819.42396 
    2300    299.25601            0    3220.8085    6416.9352    875.59939 
    2400    300.86028            0    3262.3754    6475.6361    831.23534 
    2500    298.29421            0    3262.6323    6448.4867    770.36484 
    2600    295.44008            0    3297.1443    6452.5159     797.2527 
    2700    307.17019            0    3263.4625    6544.1146    832.67748 
    2800    297.17716            0    3290.8905    6464.8146    910.91158 
    2900    303.57212            0    3133.2048    6375.4286    895.01568 
    3000    298.18184            0    3191.8744    6376.5288    949.39283 
    3100    302.63673            0    3275.8074    6508.0411    994.70889 
    3200    302.09108            0     3267.563    6493.9689    945.61842 
    3300    293.96476            0    3244.6322    6384.2471    964.12683 
    3400    300.38399            0    3190.4401     6398.614    922.75338 
    3500    303.27363            0    3300.7886    6539.8245    938.48597 
    3600    301.39969            0    3293.1485    6512.1702    902.66956 
    3700    301.05717            0    3248.8564      6464.22    982.17815 
    3800    300.65445            0    3192.7857    6403.8482    1009.8734 
    3900     287.8754            0    3209.0907    6283.6698    961.17499 
    4000    301.39275            0    3242.3171    6461.2647    996.45209 
    4100    300.88125            0    3255.8266    6469.3113    996.74679 
    4200    299.39616            0    3222.8742    6420.4977    969.91425 
    4300    305.70718            0    3258.0132    6523.0399    975.48281 
    4400    308.43951            0    3269.7784    6563.9871    1007.4679 
    4500    297.68419            0    3176.8376     6356.177    905.69504 
    4600    301.47645            0    3238.3013    6458.1429    930.66748 
    4700    301.08265            0    3305.9931    6521.6289    974.48942 
    4800    297.31768            0     3353.495    6528.9198     979.6018 
    4900    300.15094            0    3236.4635    6442.1482    946.27011 
    5000    298.76454            0    3184.9825    6375.8602    997.14559 
    5100    294.35668            0    3206.2787    6350.0794    1067.4928 
    5200    299.43356            0    3199.9477    6397.9707    1054.9633 
    5300    305.83468            0     3232.934    6499.3225    1055.5528 
    5400    294.77335            0    3347.9808    6496.2316    1042.4598 
    5500    304.68823            0    3262.1094    6516.2535    997.79262 
    5600    294.60995            0    3228.5611    6375.0667    1010.9024 
    5700      301.905            0    3172.8383    6397.2569    1032.1742 
    5800    304.39352            0    3189.0975    6440.0942    988.70151 
    5900    295.60585            0    3310.9563    6468.0985    1021.1878 
    6000    297.69215            0    3237.8401    6417.2644    1010.1184 
    6100    304.32518            0     3189.022    6439.2887    963.82762 
    6200    298.37239            0    3296.3489    6483.0384    976.15696 
    6300    300.69625            0    3183.5877    6395.0965    979.94652 
    6400    300.63092            0    3213.7053    6424.5164    974.86609 
    6500    294.08244            0    3301.8298    6442.7015    961.34722 
    6600    300.87319            0    3234.0218    6447.4204    990.96139 
    6700    298.20104            0     3281.766    6466.6254    999.52934 
    6800    300.10479            0    3224.3739    6429.5659    943.14509 
    6900    295.32377            0    3268.3541    6422.4835    1003.6638 
    7000     299.1996            0    3210.2181    6405.7424    1010.4544 
    7100    312.75972            0    3193.4407    6533.7904    1005.8177 
    7200    301.09051            0    3282.5958    6498.3155    1018.0417 
    7300    301.14954            0    3220.3964    6436.7465    971.59386 
    7400    293.55092            0    3294.2236    6429.4186    1029.3464 
    7500    301.88901            0    3243.3784    6467.6262     1062.933 
    7600    298.28801            0    3172.7945    6358.5827    1061.3473 
    7700    295.00044            0    3235.8236    6386.4998    1068.0597 
    7800    299.77481            0    3262.9449    6464.6126    1012.9116 
    7900     309.5264            0    3280.9008    6586.7178    1063.1265 
    8000    290.94677            0    3228.7026    6336.0846    1053.3482 
    8100    305.46716            0    3202.8364    6465.2998    1015.7368 
    8200    295.92739            0    3301.1097     6461.686    1108.1463 
    8300    302.55887            0    3262.6776    6494.0797    1096.2464 
    8400    299.51033            0    3227.0219    6425.8649    1007.1694 
    8500    301.44873            0    3239.1058    6458.6513    1011.8088 
    8600    303.17923            0    3244.8746    6482.9022    1005.3667 
    8700    304.26371            0      3234.22    6483.8302    983.26845 
    8800    294.35433            0    3297.4399    6441.2154    1000.6133 
    8900    304.30095            0    3217.1168    6467.1246    1020.1304 
    9000    296.62949            0    3201.3927    6369.4676    1054.3129 
    9100    294.42983            0    3241.4035    6385.9855    1050.1682 
    9200    300.68574            0    3214.1919    6425.5885    1019.0581 
    9300    297.86111            0    3261.5719    6442.8008    1032.4498 
    9400    298.06062            0    3314.5039    6497.8636    1026.6324 
    9500    303.27356            0    3218.5784    6457.6134    1001.0001 
    9600    294.19602            0    3208.8286    6350.9134    1041.0414 
    9700    296.84248            0    3212.6647    6383.0144    1019.9445 
    9800    302.56076            0     3243.333    6474.7553    994.60079 
    9900    304.33403            0    3280.8817    6531.2429     1034.048 
   10000    305.94921            0    3215.4929    6483.1047    1047.0982 
   10100    296.36925            0     3196.987    6362.2825    1005.7107 
   10200    298.51455            0    3175.1785    6363.3862    1013.8696 
   10300    301.33613            0    3298.9812    6517.3241    1090.2718 
   10400    294.76313            0    3283.3327    6431.4744    1024.6054 
   10500    305.03604            0    3209.3556    6467.2144    1033.0428 
   10600    300.55879            0     3330.879    6540.9197     1085.519 
   10700    300.24919            0     3243.923    6450.6572    1027.3377 
   10800    296.83392            0    3221.2859    6391.5442      1012.53 
   10900    307.29579            0    3309.8717    6591.8652    1075.9376 
   11000    301.02269            0    3240.0461    6455.0413    1022.8807 
   11100    292.14757            0     3158.744    6278.9509    990.04715 
   11200    301.12466            0    3269.7138    6485.7982    1070.0549 
   11300    297.00435            0    3171.6968    6343.7753     1024.352 
   11400    307.23178            0    3273.3804    6554.6902    1056.6572 
   11500    297.94229            0    3263.9441    6446.0399    1046.1553 
   11600    301.06459            0    3240.5624    6456.0052    1042.0915 
   11700    298.22031            0    3302.9141    6487.9793    1032.1328 
   11800    308.84221            0    3255.7919    6554.3016    1052.2305 
   11900    298.16698            0    3124.6284     6309.124     1021.448 
   12000    294.88101            0    3218.0589    6367.4596    1038.8004 
   12100    301.70938            0    3267.0597     6489.389    1010.5669 
   12200    296.53981            0    3223.5372    6390.6542    975.06043 
   12300    294.04104            0    3303.0013    6443.4308    1015.5655 
   12400    297.06578            0    3230.8311    6403.5656    993.29519 
   12500    296.91615            0    3217.1145     6388.251    988.82362 
   12600    305.44458            0    3265.2971    6527.5192    999.23628 
   12700    297.37152            0    3271.4304    6447.4304     1000.921 
   12800    299.50301            0    3198.9745    6397.7393    1022.3331 
   12900    301.93961            0     3308.899    6533.6872    1066.1284 
   13000    291.59334            0    3185.3253    6299.6128    973.56859 
   13100    303.74526            0     3221.226    6465.2991    1022.4624 
   13200    296.24402            0    3223.4217    6387.3796    1026.5454 
   13300    303.21582            0    3282.6127    6521.0312    1054.7841 
   13400    294.77986            0    3232.8631    6381.1835     1073.199 
   13500    298.80562            0     3197.629    6388.9454    1072.6041 
   13600    303.69239            0    3236.5633    6480.0716    1043.0923 
   13700     301.0877            0    3319.0182    6534.7079    1105.2282 
   13800    296.83196            0      3279.25    6449.4873    1072.7106 
   13900    299.26273            0    3201.4732    6397.6717    1032.7561 
   14000     300.4477            0    3225.7356    6434.5898    1053.4518 
   14100    299.87147            0    3188.2388    6390.9388    1025.4266 
   14200    299.61968            0     3317.419    6517.4298    1108.0005 
   14300    295.51461            0    3233.2573     6389.425    1042.5126 
   14400    305.05212            0    3270.6324    6528.6631    1055.3258 
   14500    295.52227            0    3251.4967    6407.7462    996.86987 
   14600      302.813            0    3213.8508    6447.9671    978.84418 
   14700    297.77057            0    3285.7894    6466.0512    1041.8416 
   14800       307.61            0    3230.4942    6515.8436    1016.6851 
   14900       298.62            0    3276.3859    6465.7199     1027.507 
   15000    294.60439            0    3233.1369    6379.5832     1030.861 
   15100    308.80899            0    3316.5686    6614.7235    1096.1059 
   15200    294.33995            0    3162.8245    6306.4464    1036.8477 
   15300    301.47452            0    3166.6526    6386.4736    1027.5444 
   15400    301.40763            0    3368.1366    6587.2432    1050.2502 
   15500    296.44833            0    3243.6338    6409.7738    975.75461 
   15600    299.45199            0    3184.0987    6382.3185    1077.4922 
   15700    302.01117            0    3188.9788    6414.5312     1071.214 
   15800    295.78301            0     3289.533    6448.5673    1039.9028 
   15900    303.10542            0    3239.7747     6477.014    1002.8467 
   16000    299.83984            0    3247.8184    6450.1806    1019.5524 
   16100      300.916            0    3232.9092     6446.765    1007.8147 
   16200    300.56493            0    3198.5643    6408.6706    1049.3273 
   16300    297.76045            0    3201.1437    6381.2974    1065.0985 
   16400    302.40011            0    3296.7339    6526.4404      1024.94 
   16500    297.58339            0    3400.5975    6578.8603    1046.7197 
   16600    301.05733            0    3165.1311    6380.4964    1011.9972 
   16700     306.0202            0    3210.5051     6478.875    1038.2104 
   16800     302.8579            0    3299.7533    6534.3491     1016.449 
   16900    305.86409            0    3258.4799    6525.1825    1045.1808 
   17000    298.47795            0    3277.1127    6464.9296    1054.2659 
   17100    301.83177            0    3241.0334    6464.6699    1013.7646 
   17200    306.43914            0    3219.2434    6492.0877    1044.1915 
   17300    297.24546            0    3248.1402    6422.7937    1054.7204 
   17400     305.9831            0    3238.6161    6506.5898     1018.176 
   17500    297.99029            0    3296.3512    6478.9597    1019.1117 
   17600    308.62736            0    3262.5639    6558.7789    1022.3028 
   17700    299.64111            0    3232.9583     6433.198    1033.0111 
   17800    292.47069            0    3206.0606    6329.7184    1020.9215 
   17900     301.0765            0    3251.6934    6467.2634    1069.1339 
   18000    299.64276            0    3247.2046    6447.4619    1058.2082 
   18100    295.75054            0    3217.6036    6376.2911    980.24331 
   18200    295.19533            0    3306.2555    6459.0132    1052.0708 
   18300    301.65812            0    3296.3464    6518.1283    1006.5867 
   18400    303.92203            0    3261.5455    6507.5064    1020.2244 
   18500    303.84351            0    3183.8311    6428.9535    1002.6705 
   18600    296.24609            0    3279.0376    6443.0176    1079.3139 
   18700    303.18951            0     3258.099    6496.2364    1051.5077 
   18800    297.03373            0    3213.1042    6385.4964    1057.3341 
   18900    303.56931            0    3324.2697    6566.4635     1108.888 
   19000    300.89939            0    3300.8376    6514.5161    1066.7468 
   19100    298.47457            0    3168.2232     6356.004    1040.9519 
   19200    291.73301            0    3184.2209    6300.0002    1056.9493 
   19300    297.40914            0      3238.98    6415.3817    1055.1236 
   19400    304.98371            0    3283.2274    6540.5273    1102.5191 
   19500    298.17705            0    3253.1561    6437.7593    1078.0373 
   19600     305.2233            0    3198.7975    6458.6564    1025.0954 
   19700    297.93194            0    3271.5126    6453.4979    1057.1498 
   19800    301.77499            0    3217.7217    6440.7517    1018.3754 
   19900    292.60909            0    3241.5156    6366.6516    1028.0046 
   20000    306.15803            0    3239.4104    6509.2523    1046.7307 
   20100    295.57266            0    3166.4474     6323.235    1036.8832 
   20200    298.91531            0     3236.722    6429.2099    1043.9127 
   20300    304.48181            0    3309.0843    6561.0238    1101.7457 
   20400    309.99759            0    3213.8357    6524.6851    1031.2011 
   20500    299.96486            0    3223.5603    6427.2577    1010.4164 
   20600    298.40661            0    3307.4694    6494.5243    1032.3652 
   20700    303.34309            0    3142.2937    6382.0714    961.79926 
   20800    300.74036            0    3240.1776    6452.1576     1010.143 
   20900    298.60999            0    3227.2112    6416.4383    998.59206 
   21000    306.28323            0    3230.2958    6501.4749    1062.9129 
   21100    294.25396            0    3288.7805    6431.4841    1073.7846 
   21200    300.83448            0    3283.6421    6496.6272    1118.2659 
   21300     293.1202            0    3220.2434    6350.8382    1079.3569 
   21400    300.66016            0    3249.5435    6460.6669    1089.0008 
   21500    302.17344            0    3228.0404     6455.326    1096.6239 
   21600    299.40982            0    3284.7732    6482.5427    1057.6778 
   21700    302.73617            0    3240.4322    6473.7279    1059.1305 
   21800    300.84987            0    3258.5142    6471.6637    1115.5346 
   21900    301.27309            0    3187.0916    6404.7612    1076.0046 
   22000    294.03228            0     3217.197    6357.5331    1058.3456 
   22100      300.234            0    3256.8513    6463.4231    1050.3452 
   22200    298.99901            0    3223.5041    6416.8859    1007.9943 
   22300    304.22258            0    3298.8787    6548.0497    1104.4878 
   22400    295.56903            0    3216.9455    6373.6944    1082.4809 
   22500    295.04306            0    3213.4863    6364.6177    1072.9143 
   22600    302.30964            0    3280.7812    6509.5215    1054.2741 
   22700     296.5664            0    3269.9191    6437.3201    1023.0033 
   22800    298.85807            0    3241.0259    6432.9026    1021.9628 
   22900    296.59168            0    3275.1735    6442.8446     1028.381 
   23000      303.697            0    3225.6133    6469.1709    1040.7222 
   23100    302.00279            0    3267.1302    6492.5932    1002.6493 
   23200     289.1572            0    3261.1236    6349.3925    964.49262 
   23300    304.09855            0    3247.5042    6495.3504    1059.8314 
   23400    298.46522            0    3248.3093    6435.9903    1086.6494 
   23500    300.11111            0    3196.7338    6401.9932    1010.1933 
   23600    297.02087            0     3212.111    6384.3658    1074.4186 
   23700    302.61497            0    3227.2694    6459.2707    1071.3446 
   23800    296.80475            0    3267.2897    6437.2364    991.70563 
   23900    298.85551            0    3296.0489    6487.8982    985.28919 
   24000    301.37544            0    3299.0247    6517.7875    1094.6418 
   24100    296.98063            0    3137.4546    6309.2797    991.63239 
   24200    302.08536            0    3188.6929    6415.0378    1014.9547 
   24300    302.19198            0    3253.3515    6480.8351    1018.6608 
   24400    299.46484            0    3281.0428    6479.3998    1010.3977 
   24500    304.86297            0    3286.7299    6542.7402    975.67352 
   24600    309.45128            0    3224.1192    6529.1339    1031.5485 
   24700    300.75435            0    3246.6247     6458.754    1023.8447 
   24800    299.83199            0    3232.7019    6434.9803    998.45878 
   24900    303.08921            0    3199.0713    6436.1376    1019.3441 
   25000     297.4706            0    3274.3529     6451.411    1028.3911 
   25100    291.99607            0    3154.8185    6273.4073    927.03167 
   25200    298.18135            0     3278.778     6463.427    1023.3903 
   25300    302.03933            0    3237.7125    6463.5658    1039.9644 
   25400    303.74494            0    3258.7166    6502.7862    1093.5573 
   25500    310.23193            0    3199.0513    6512.4035     1019.602 
   25600    303.33073            0    3268.7886    6508.4344    1070.4057 
   25700      294.471            0     3239.142    6384.1637    1063.7948 
   25800    292.73273            0    3232.7218    6359.1783     1044.508 
   25900    301.57581            0    3208.2869    6429.1897    1030.1155 
   26000    298.21129            0    3250.1563    6435.1252    1055.4502 
   26100    304.67049            0    3288.0104    6541.9651     1024.779 
   26200    302.37761            0    3228.2367    6457.7029    1035.3577 
   26300     295.1681            0    3218.0816    6370.5485    1030.6881 
   26400    303.46196            0    3198.8379    6439.8852      1035.03 
   26500     298.2402            0    3229.7162    6414.9938    1071.4587 
   26600    293.79715            0    3218.3265    6356.1513    1047.9673 
   26700    305.50724            0    3277.4939    6540.3852    1050.8231 
   26800    300.65012            0    3263.7502    6474.7664    1023.8272 
   26900    295.26537            0    3241.0701    6394.5759    1053.0502 
   27000    299.82422            0    3272.7937    6474.9891    1015.2615 
   27100    297.91753            0    3206.0328    6387.8642    1011.3068 
   27200    302.53741            0    3182.5665    6413.7394    1035.2326 
   27300    295.75708            0     3332.834    6491.5913    1039.0747 
   27400    298.95557            0     3303.388     6496.306     977.1324 
   27500    302.96595            0    3210.2145    6445.9642    1014.5543 
   27600    294.32346            0    3215.7766    6359.2225    1042.3566 
   27700    293.44896            0    3291.1139    6425.2199    1026.0501 
   27800    308.29696            0    3301.0693    6593.7555    1039.4923 
   27900    297.40506            0     3266.406    6442.7642    990.31045 
   28000    300.12148            0    3271.4399      6476.81    1055.4485 
   28100    299.33069            0     3164.657    6361.5813    1019.1769 
   28200    309.29008            0    3255.2385    6558.5315    1002.3148 
   28300    307.07257            0    3270.8369    6550.4464    1017.7914 
   28400    297.51671            0    3225.6573    6403.2079    1013.3598 
   28500    299.08914            0    3218.4792    6412.8237    1026.7338 
   28600    304.18874            0    3250.7307    6499.5402     1031.779 
   28700    301.07462            0    3216.1663    6431.7162    1005.5175 
   28800    300.69205            0    3170.1388    6381.6027    987.72428 
   28900    304.32759            0    3289.1741    6539.4665    993.72175 
   29000     302.2451            0    3327.4618    6555.5127    1034.6731 
   29100    292.12217            0    3187.6572    6307.5928    976.03868 
   29200    292.13822            0    3154.0103    6274.1173    996.88297 
   29300    303.12042            0    3300.5656    6537.9651    1018.5539 
   29400    296.53639            0    3273.9367    6441.0172    1019.9829 
   29500    295.43807            0    3200.7674    6356.1176    1024.2444 
   29600    299.83158            0    3224.9496    6427.2236    1032.2557 
   29700    313.50712            0    3210.5724    6558.9045    995.26378 
   29800    296.10254            0    3324.0875    6486.5345    1035.5597 
   29900     300.5358            0    3249.8836    6459.6788     995.8841 
   30000    302.87158            0    3251.8639    6486.6058    1002.8878 
   30100    296.28499            0    3238.8604    6403.2558    989.82561 
   30200    303.08052            0    3300.7719    6537.7453    1038.8706 
   30300    300.50989            0    3169.6821    6379.2005    992.12935 
   30400    305.66053            0      3268.85    6533.3786    1021.2896 
   30500    297.39836            0    3246.3799    6422.6664    1020.2521 
   30600    300.77138            0    3187.2033    6399.5145    1036.4452 
   30700    303.82572            0     3221.215    6466.1474    1067.0748 
   30800    296.59266            0    3243.6735     6411.355      1050.23 
   30900    299.55134            0    3216.1242    6415.4052    1021.2865 
   31000    292.93113            0    3268.0602    6396.6356    1063.1102 
   31100    298.76948            0     3290.631    6481.5614    1051.9178 
   31200    296.91658            0    3242.6627    6413.8038    1021.1143 
   31300    300.69056            0    3255.9874    6467.4355    1023.9748 
   31400    301.64162            0    3225.7844    6447.3901    1025.3726 
   31500    309.69819            0    3254.8472    6562.4989    1070.2646 
   31600    296.94296            0     3259.072    6430.4948    1061.3141 
   31700    301.83762            0    3281.0762    6504.7751    1070.7731 
   31800    299.61366            0    3188.8687    6388.8152     1029.865 
   31900    293.25962            0    3187.9559    6320.0398    947.05191 
   32000    304.10993            0    3317.3341    6565.3019    1046.9099 
   32100    298.39989            0    3309.0237    6496.0068    1050.0624 
   32200    301.92649            0    3185.8179     6410.466    1022.9356 
   32300    301.01322            0    3199.5298     6414.424    1048.1503 
   32400    301.02673            0    3268.3443    6483.3828    1028.4103 
   32500    298.99723            0    3256.0941     6449.457    1018.1898 
   32600    302.10498            0    3240.1269    6466.6813    1061.5375 
   32700    298.47489            0    3256.5932    6444.3774    1063.8815 
   32800    298.98498            0    3212.4562    6405.6883    1037.2039 
   32900    301.00787            0    3245.4759    6460.3129    1066.9079 
   33000    305.52384            0    3247.3773    6510.4459    1074.4966 
   33100     295.5493            0    3213.6076    6370.1457    1065.8556 
   33200    306.48465            0    3253.1932    6526.5236    1051.2381 
   33300    295.85883            0    3314.2664    6474.1105    1059.1599 
   33400    306.91019            0    3251.8352    6529.7104    1052.9087 
   33500    299.95645            0     3260.412    6464.0196    1087.7267 
   33600    308.97542            0    3214.3901    6514.3225    1073.0491 
   33700    301.35631            0    3213.6176    6432.1761    1091.7076 
   33800    295.49751            0    3263.6631    6419.6482    1077.4927 
   33900     302.5039            0    3315.5638    6546.3787    1084.6581 
   34000    294.08836            0    3197.7663    6338.7013     1058.082 
   34100    306.59073            0    3214.6076    6489.0709    1040.0339 
   34200    301.74282            0    3171.7354    6394.4219    1028.9494 
   34300    296.66833            0    3325.5462    6494.0359    1120.0296 
   34400    306.23295            0    3243.3246    6513.9668     1062.069 
   34500    297.27651            0    3255.3703    6430.3555     1074.152 
   34600    308.01569            0    3255.4308     6545.113    1114.2572 
   34700    296.36998            0    3230.4758     6395.779    1062.6039 
   34800    303.27754            0    3205.3253    6444.4029    1071.9763 
   34900    301.32821            0    3178.4968    6396.7551     1069.383 
   35000    300.15927            0    3307.7918    6513.5656    1091.2818 
   35100    296.27594            0    3238.2162    6402.5151    1051.3734 
   35200    295.59686            0    3224.9388    6381.9849    1092.1023 
   35300    302.48594            0    3247.7961    6478.4192    1064.7266 
   35400    301.65422            0    3252.8614    6474.6015    1088.4108 
   35500    298.95623            0    3257.1883    6450.1133    1122.3057 
   35600    300.72846            0    3278.2056    6490.0585    1083.1267 
   35700    300.55545            0    3253.7957    6463.8007    1068.2319 
   35800    297.99419            0    3191.2416    6373.8917    1018.5828 
   35900    298.96682            0    3297.2773    6490.3154    1076.1207 
   36000    309.18678            0    3230.2003      6532.39    1084.0855 
   36100    297.85737            0     3184.894     6366.083    1054.4287 
   36200    298.50724            0    3254.4786    6442.6083    1072.4031 
   36300     300.3145            0    3247.0507    6454.4824    1042.2922 
   36400    297.99817            0    3338.3071    6520.9998    1091.2688 
   36500    304.00293            0     3220.894     6467.719    1058.3744 
   36600    292.93031            0    3290.2756    6418.8424    1132.1378 
   36700    300.89047            0    3220.2433    6433.8265    1079.4836 
   36800    304.63907            0    3289.7892    6543.4084    1062.9025 
   36900    295.09987            0    3232.0397    6383.7779    1053.2583 
   37000    303.15583            0    3261.4108    6499.1886    1118.1331 
   37100    298.93077            0    3237.8176    6430.4707    1059.7846 
   37200    295.01032            0    3281.2626    6432.0443    1088.0609 
   37300    303.38031            0    3235.9624    6476.1377    1101.5893 
   37400    293.84344            0      3224.39    6362.7093    1076.5051 
   37500    297.00595            0    3223.4882    6395.5838    1067.9121 
   37600    302.52202            0    3235.2566    6466.2652    1055.4544 
   37700    301.73268            0    3315.2272    6537.8053    1132.3526 
   37800    295.40178            0    3201.5532    6356.5158    1033.7622 
   37900    305.06674            0     3278.981    6537.1677    1121.6947 
   38000    296.89196            0     3343.984    6514.8621    1102.3565 
   38100    304.57248            0    3184.3084    6437.2163    1026.8361 
   38200    301.24176            0    3143.8413    6361.1763    1033.2792 
   38300    297.20236            0    3264.7684    6438.9616    1078.7973 
   38400    294.52063            0    3306.3264    6451.8781    1061.3083 
   38500    304.05531            0    3200.0565    6447.4409    1030.3698 
   38600    305.77504            0    3256.5958    6522.3474    1081.8714 
   38700    295.18408            0    3256.0368    6408.6743    1023.8379 
   38800    298.75921            0      3340.73    6531.5508    1069.7453 
   38900    309.35624            0    3232.6879    6536.6876    1047.3038 
   39000    296.53827            0      3264.85    6431.9506    1040.7866 
   39100    302.57018            0    3257.3573    6488.8801    1065.4715 
   39200     292.9083            0    3214.3693    6342.7009    1018.3484 
   39300    301.67473            0    3229.1841    6451.1434    1033.7218 
   39400    296.96403            0    3224.1031     6395.751    1024.0087 
   39500    294.53755            0    3296.1624    6441.8948    1034.8603 
   39600    303.52337            0     3185.513    6427.2162    1019.7274 
   39700    293.96021            0    3202.6775    6342.2438     1022.194 
   39800    302.93512            0    3255.0896    6490.5101    1068.6321 
   39900    299.89339            0    3242.0127    6444.9468    1071.2585 
   40000    305.64214            0    3154.6307    6418.9628    1059.8786 
   40100    298.09867            0    3196.5317    6380.2978    1077.3511 
   40200    291.76293            0     3320.543    6436.6419    1068.9005 
   40300    305.94583            0    3248.8884     6516.464    1026.8159 
   40400    298.94714            0    3233.4489    6426.2769    1057.3177 
   40500    297.32996            0    3290.8268    6466.3828    1082.2914 
   40600    302.26715            0    3232.1342    6460.4207    1049.5098 
   40700     300.1761            0    3269.3623    6475.3158    1056.1713 
   40800    292.87835            0     3243.399    6371.4107    1012.7988 
   40900    301.18279            0    3242.6046    6459.3098    1034.9761 
   41000    300.96093            0    3194.2267    6408.5624    1044.4477 
   41100    290.83705            0    3294.2399      6400.45    1121.1361 
   41200    301.00447            0    3212.1872    6426.9879    1052.6498 
   41300    297.93885            0    3196.6135    6378.6727    1049.6233 
   41400    300.25639            0    3187.3756    6394.1866    1069.0565 
   41500     306.3601            0    3284.0965    6556.0966    1077.7233 
   41600    300.67073            0    3266.6371    6477.8733    1061.1828 
   41700    301.94799            0    3205.0562    6429.9339     1030.273 
   41800    298.58973            0    3238.2276    6427.2383    985.52248 
   41900    302.77334            0    3275.0037    6508.6963    1050.9206 
   42000    301.43288            0    3205.7452    6425.1214    1047.5744 
   42100    297.01334            0    3273.7407    6445.9152    1062.6985 
   42200    303.43679            0    3223.6783    6464.4568    1011.3228 
   42300     311.7928            0    3241.5184    6571.5411    1068.5707 
   42400    296.88197            0    3267.4042    6438.1756    1087.8139 
   42500    299.38796            0    3245.1937    6442.7297     1063.883 
   42600    296.94576            0    3236.9248    6408.3775    1065.2668 
   42700    303.30651            0    3274.0233    6513.4104    1053.9709 
   42800     294.6771            0    3259.2683    6406.4911    1058.0294 
   42900    300.31717            0    3218.2827    6425.7428    1009.0621 
   43000    301.00865            0    3249.3213    6464.1667    1029.3716 
   43100    299.60858            0    3305.2132    6505.1055    1045.5644 
   43200    302.58113            0    3235.9289    6467.5687    1007.0869 
   43300    297.75195            0    3222.1099    6402.1729     986.6741 
   43400    296.32609            0    3240.9018    6405.7363    1050.7265 
   43500    298.73527            0    3165.3964    6355.9616    1043.5839 
   43600    301.19287            0    3204.8836    6421.6965    1044.6935 
   43700    297.12781            0    3300.0824    6473.4795    1082.9199 
   43800    298.44684            0    3212.0455    6399.5301    1053.6315 
   43900    298.55316            0    3202.0892    6390.7093     1015.571 
   44000    300.73167            0    3235.0731    6446.9603    1041.2546 
   44100    299.03127            0    3276.1125    6469.8389      1094.79 
   44200    299.69957            0    3203.3164    6404.1805    1037.8483 
   44300    299.38891            0    3352.0751    6549.6213    1084.5127 
   44400    308.02912            0    3288.4664     6578.292    1070.4254 
   44500    296.51205            0    3161.5576    6328.3782    1025.5543 
   44600    307.94374            0    3241.0013     6529.915    1098.6779 
   44700    302.18637            0    3231.6061    6459.0298    1060.1792 
   44800    298.01696            0    3300.5904    6483.4837    1086.3715 
   44900    302.86756            0    3275.5834    6510.2823    1021.5359 
   45000    298.45617            0    3213.2433    6400.8276    972.91594 
   45100    302.03748            0    3273.5181    6499.3517    1048.1401 
   45200    300.79278            0     3253.178    6465.7178     1057.259 
   45300    294.10527            0    3261.6542    6402.7697    992.26606 
   45400    308.10496            0    3317.4841    6608.1198    1078.9982 
   45500    298.12027            0    3217.9301    6401.9269    1042.1413 
   45600    298.87323            0     3246.837    6438.8755    1049.8153 
   45700    302.18865            0     3284.679     6512.127     1013.929 
   45800    305.51935            0    3280.3093      6543.33    1050.5932 
   45900    289.82768            0    3228.3091     6323.739     1050.324 
   46000    304.89853            0    3328.0907    6584.4808    1062.4179 
   46100    297.04549            0    3214.5798    6387.0977    1038.3771 
   46200    302.43229            0    3175.8756    6405.9258    1040.2997 
   46300    298.55221            0    3272.0216    6460.6316    1020.9293 
   46400    299.39558            0    3345.0059    6542.6233    1078.6341 
   46500    304.36247            0     3237.487    6488.1519    1061.0416 
   46600    295.17454            0    3174.6974    6327.2331    982.36322 
   46700    298.98885            0    3247.0112    6440.2846    1047.1697 
   46800     305.1885            0    3226.9322    6486.4194    1047.7762 
   46900    298.79039            0    3260.6729    6451.8266    976.74377 
   47000    295.85072            0     3266.327    6426.0845    993.77646 
   47100    299.89101            0     3218.726    6421.6347    1028.5853 
   47200    296.40846            0    3231.1515    6396.8657    999.78904 
   47300    294.66017            0    3202.6997    6349.7417    996.10599 
   47400    305.44277            0    3277.0901     6539.293    1097.0133 
   47500    297.72292            0    3223.2411    6402.9941    1045.8354 
   47600    300.93109            0    3293.7292    6507.7462     1048.752 
   47700    300.59583            0    3211.0719    6421.5083    1051.9032 
   47800     310.0657            0     3208.647    6520.2238    1071.7651 
   47900    298.06188            0    3226.5368      6409.91    1028.0345 
   48000    301.91048            0    3248.3783    6472.8554    1069.5797 
   48100    302.94603            0    3301.5851    6537.1221    1073.1891 
   48200     302.1628            0     3263.384     6490.556     1057.023 
   48300    304.52054            0    3229.5079    6481.8611    1069.0933 
   48400    297.70397            0    3195.6009    6375.1514    1057.9699 
   48500    303.02028            0     3183.555    6419.8851    1034.6501 
   48600    299.10145            0    3209.4673    6403.9434     1039.246 
   48700    307.53529            0    3327.6652    6612.2167    1085.1694 
   48800    295.71001            0    3235.9072    6394.1618    1000.2308 
   48900    303.10629            0    3271.8839    6509.1325    1055.3449 
   49000    298.25736            0    3267.7047    6453.1656    1045.7437 
   49100    307.82536            0    3208.4501    6496.0996     993.9324 
   49200    306.59436            0    3227.4665    6501.9686    1021.0064 
   49300    304.81937            0    3300.5031    6556.0478    1013.4972 
   49400    292.90631            0    3334.8918    6463.2022    986.83607 
   49500    300.82301            0    3219.2749    6432.1376    1015.2842 
   49600    292.09689            0    3241.6629    6361.3284     1039.523 
   49700    296.93742            0    3200.9546    6372.3182    1038.6008 
   49800    306.80638            0    3176.8604    6453.6269    1024.7111 
   49900     299.1702            0    3224.9387    6420.1489    1043.0069 
   50000    302.54618            0    3285.6754    6516.9419     1054.759 
   50100    303.42767            0    3233.2042    6473.8853    1036.0099 
   50200    295.25147            0    3172.8254    6326.1827    1002.1436 
   50300    296.18138            0    3216.0645    6379.3534    1030.4645 
   50400    296.60792            0    3214.7067    6382.5511    1026.1659 
   50500     303.9233            0    3287.2136    6533.1881    1052.0386 
   50600    298.68473            0    3352.9697     6542.995    1079.4843 
   50700    296.44313            0    3190.8162    6356.9007    1029.0593 
   50800    300.51074            0    3152.3564    6361.8839    995.48406 
   50900    298.65245            0    3281.9769    6471.6575    1047.4271 
   51000    293.48002            0    3254.6233    6389.0611    1009.5955 
   51100    296.28824            0    3290.7425    6455.1728    1064.0563 
   51200    295.83204            0    3255.2736    6414.8315    1055.6685 
   51300    297.24398            0    3218.0778    6392.7156    1058.0387 
   51400    296.67609            0    3277.6458    6446.2184    1107.8563 
   51500    301.25187            0    3206.2126    6423.6556    1025.2017 
   51600    297.93742            0     3204.999    6387.0428    1022.2636 
   51700    300.88545            0    3319.3344    6532.8639    1079.0864 
   51800    299.56218            0    3136.2808    6335.6775    981.61457 
   51900    296.12948            0    3211.1507    6373.8853    1002.6247 
   52000      299.798            0    3230.6433    6432.5586    1044.6184 
   52100    301.30805            0    3277.4905    6495.5335    1067.1731 
   52200    302.57635            0    3251.7798    6483.3686    1064.5804 
   52300    305.38427            0    3235.3425    6496.9205    1057.5411 
   52400     296.8264            0    3271.7299    6441.9078    1061.4558 
   52500    298.06307            0    3169.4648    6352.8506    989.06918 
   52600    306.20014            0    3226.5992     6496.891    1059.5028 
   52700    306.37665            0     3260.357    6532.5339    1063.7167 
   52800    296.59778            0    3280.1909    6447.9271    1003.0272 
   52900    307.12817            0    3191.1131    6471.3164    1019.6083 
   53000     299.7872            0    3210.3357    6412.1357    998.62156 
   53100    296.52275            0    3302.5623    6469.4971    1030.8072 
   53200    307.27027            0    3283.4407    6565.1616    1048.0131 
   53300      290.396            0    3202.4883    6303.9881    1036.7816 
   53400    303.64503            0    3226.9576    6469.9601    1059.0066 
   53500    297.39781            0    3233.9705    6410.2512    1010.6303 
   53600    295.91402            0    3243.0537    6403.4871    1030.0678 
   53700    305.29466            0    3244.4468    6505.0678    1050.0404 
   53800    299.75282            0    3248.0372    6449.4699    1042.5645 
   53900    300.66852            0    3255.2112    6466.4239    1023.8944 
   54000    299.47857            0     3246.153    6444.6567    1036.3283 
   54100    298.89545            0    3107.5498    6299.8257    1004.8796 
   54200    299.24074            0    3275.0654    6471.0291    1062.5774 
   54300    299.82711            0      3290.69    6492.9162    1043.6434 
   54400    300.14066            0    3277.2147    6482.7896    1079.8309 
   54500    305.03709            0    3158.8517    6416.7218    1027.8744 
   54600    297.66327            0    3199.0042      6378.12     985.3558 
   54700    295.86203            0    3226.6646    6386.5428     1033.524 
   54800    300.97744            0    3287.9578    6502.4698    1058.0563 
   54900    296.62263            0    3232.4338    6400.4354    1029.8873 
   55000    296.42414            0    3178.5818    6344.4635    1046.4032 
   55100    308.31061            0    3242.4713    6535.3033    1061.3491 
   55200    296.56439            0    3308.7334     6476.113    1037.3194 
   55300    300.74039            0    3332.2994    6544.2797    1066.8134 
   55400    304.85527            0    3174.4275    6430.3557    1035.4152 
   55500     297.1202            0    3241.5244    6414.8402     1042.624 
   55600    301.90721            0     3210.272    6434.7141    1059.8023 
   55700    293.44155            0     3233.742    6367.7688    1084.5622 
   55800    299.92708            0    3274.2773    6477.5712    1038.5261 
   55900    302.69974            0    3259.4925    6492.3991    1016.5152 
   56000    299.08542            0    3208.4541    6402.7588    1059.2972 
   56100    294.18147            0    3259.8066     6401.736    1049.0676 
   56200    304.15385            0     3238.781    6487.2179    1002.9428 
   56300    298.99774            0    3287.5431    6480.9114     1021.493 
   56400    295.34998            0    3225.5472    6379.9566    993.91529 
   56500    305.48045            0    3253.0966    6515.7018    1024.4298 
   56600    297.19068            0    3212.1984    6386.2669    1038.7409 
   56700    299.73681            0    3196.8348    6398.0965    1045.8377 
   56800    295.36774            0      3305.75     6460.349    1018.4121 
   56900    292.56322            0    3278.0272    6402.6733     990.3682 
   57000    300.90005            0    3252.3613    6466.0468    1059.9639 
   57100    296.93034            0    3151.6034    6322.8914     1028.291 
   57200    294.90134            0     3263.025    6412.6428    1045.7612 
   57300    300.97213            0    3268.5538    6483.0091     1034.946 
   57400    300.35571            0    3278.7825    6486.6544    1015.8354 
   57500    305.94422            0     3270.806    6538.3644    1108.1677 
   57600    297.94633            0    3292.7082    6474.8471    1089.5903 
   57700    303.12403            0    3210.3207    6447.7588    1082.5368 
   57800    296.43722            0    3208.0891    6374.1105    1040.6362 
   57900    304.44022            0    3277.0769    6528.5722    1065.8974 
   58000    300.20593            0    3179.7275    6385.9996     1037.373 
   58100    307.24517            0    3218.0293    6499.4822    1034.0611 
   58200    298.64895            0    3297.1882    6486.8313    1079.2504 
   58300    298.20492            0     3203.331    6388.2318    1045.0427 
   58400    290.85322            0    3258.2759    6364.6588    1039.8743 
   58500    304.86458            0     3226.389    6482.4166    1040.3858 
   58600    293.69454            0    3288.1792    6424.9081    1072.8186 
   58700    303.97139            0    3255.9756    6502.4638    1056.8505 
   58800    298.54374            0    3194.2355     6382.755    990.58187 
   58900    291.59904            0    3252.9729    6367.3213    1022.6751 
   59000    295.93987            0    3287.6877    6448.3973    1043.2822 
   59100    294.22259            0    3237.2262    6379.5948    1030.3932 
   59200    304.82101            0    3183.7521    6439.3144    1058.0949 
   59300    298.30555            0    3232.4216    6418.3972    1054.0722 
   59400    302.01061            0    3274.6583    6500.2049    1043.9472 
   59500    299.06985            0    3258.4145     6452.553    1088.3927 
   59600    299.20182            0    3294.8772    6490.4252    1122.7442 
   59700    308.10754            0    3241.2293    6531.8926    1093.2733 
   59800    303.71987            0    3184.6196    6428.4214    1042.1755 
   59900    300.56027            0     3290.139    6500.1956    1123.8991 
   60000    299.92958            0    3223.9079    6427.2286    1029.9997 
   60100    305.79173            0    3169.0152     6434.945    1015.9759 
   60200    298.09855            0    3329.8029    6513.5677    1087.8296 
   60300    302.43942            0    3328.3204    6558.4468     1089.956 
   60400    301.12006            0    3178.3268     6394.362    1064.0441 
   60500    302.98482            0    3201.5862    6437.5375    1119.3588 
   60600     300.0715            0     3242.702    6447.5383    1101.0014 
   60700    292.50116            0    3242.6223    6366.6057    1076.0452 
   60800    298.52454            0    3239.1329    6427.4473    1064.6091 
   60900    299.11929            0    3249.5974     6444.264    1013.7692 
   61000    300.45122            0    3286.8873    6495.7792    1095.4157 
   61100    297.40911            0    3186.0635    6362.4649    1043.0962 
   61200     301.0661            0    3237.6307    6453.0896    1051.4857 
   61300    298.72861            0     3323.244    6513.7379    1054.2573 
   61400    297.16294            0    3213.7522    6387.5245    1027.5338 
   61500    302.33799            0    3238.9028    6467.9459    1015.9428 
   61600    298.61982            0    3248.4678    6437.7999    1019.7147 
   61700    305.51801            0    3253.8698    6516.8762    1064.0385 
   61800     293.2639            0    3273.1444    6405.2739     1042.033 
   61900    301.96419            0    3190.9073    6415.9581    1042.0277 
   62000    293.63738            0    3255.9405    6392.0589    1073.5015 
   62100    304.31261            0    3269.5482    6519.6806    1068.8264 
   62200    300.94137            0    3260.7013    6474.8282    1061.3583 
   62300    297.56222            0    3249.5822    6427.6189    1083.1086 
   62400    302.74409            0    3233.9741    6467.3544    1078.8999 
   62500    289.56913            0    3220.3459    6313.0144    958.82086 
   62600    308.56689            0    3294.8996    6590.4688    1033.9981 
   62700    309.20477            0    3356.4629    6658.8448    1080.9667 
   62800    297.79601            0    3209.5892    6390.1227     1038.888 
   62900    301.55348            0    3142.9317     6363.596    1029.9541 
   63000    300.75785            0    3224.9918    6437.1585    1051.6548 
   63100    294.34652            0    3317.0806    6460.7728    1017.0009 
   63200    299.49491            0    3239.1889    6437.8672    1034.1773 
   63300    292.85773            0    3211.8999    6339.6914    1043.4531 
   63400    299.55241            0    3162.7616     6362.054    1023.6597 
   63500    304.42827            0    3281.9305    6533.2982    1057.9369 
   63600    308.21487            0    3237.4087    6529.2183    1058.4048 
   63700     298.4383            0    3156.7781    6344.1715    999.23179 
   63800    301.22841            0    3172.5208    6389.7132    1028.3485 
   63900    300.26471            0    3272.6799    6479.5798     1084.241 
   64000    298.09859            0     3207.622    6391.3872    1050.6138 
   64100    305.75026            0    3271.3667    6536.8536    1082.9326 
   64200    302.98537            0     3214.427    6450.3841    1018.1344 
   64300    299.90102            0    3237.0869    6440.1025    1038.7686 
   64400    296.24158            0    3230.3794    6394.3112    1003.7027 
   64500     293.9645            0    3208.3442    6347.9563    1013.0402 
   64600    299.82184            0    3188.8141     6390.984    1021.8554 
   64700    301.31856            0    3270.9031    6489.0583    985.43513 
   64800    295.62233            0    3298.2367    6455.5549    1030.2269 
   64900    299.91894            0    3172.3119    6375.5189    996.02285 
   65000     300.0051            0    3243.5901    6447.7172    1042.0933 
   65100    306.64594            0    3253.8125    6528.8654    1065.4137 
   65200    300.59826            0     3235.572    6446.0343    1025.8762 
   65300    299.70118            0     3323.145    6524.0262    1033.8342 
   65400    304.04477            0    3254.2944    6501.5663    962.16392 
   65500    298.50199            0    3291.1119    6479.1855     1023.947 
   65600    301.86662            0    3198.4774     6422.486    1043.4694 
   65700    298.28641            0    3266.2795    6452.0506    1090.7631 
   65800    305.88349            0    3239.2521    6506.1619    1070.4278 
   65900    292.90061            0    3221.3225     6349.572    1078.2569 
   66000    300.38589            0    3258.1868    6466.3809    1093.2512 
   66100    303.76843            0    3289.2864    6533.6069    999.42928 
   66200    294.73973            0    3251.4545    6399.3463    1001.8515 
   66300    298.82264            0    3253.2653    6444.7635    1098.2758 
   66400    303.97905            0    3203.5009    6450.0709    1071.1965 
   66500    298.17174            0    3217.5688    6402.1153    1045.6139 
   66600    299.90009            0    3221.3009    6424.3066    1073.2396 
   66700    301.90795            0    3231.0385    6455.4885    1049.6641 
   66800    297.36763            0    3262.4404    6438.3988    1000.9465 
   66900    299.78361            0     3300.625    6502.3866    1045.9961 
   67000    298.27718            0    3205.4899    6391.1625    1024.6371 
   67100    300.00073            0    3243.1464    6447.2269    997.16097 
   67200    296.20722            0    3260.2859    6423.8508    1008.9684 
   67300    308.61918            0    3278.7308    6574.8585    1086.8536 
   67400    300.64897            0    3231.4897    6442.4936    1054.5136 
   67500    308.50048            0    3244.5203    6539.3802    1050.7428 
   67600    299.45217            0    3243.3943    6441.6161    1027.0143 
   67700    299.86366            0    3292.7222    6495.3388    1025.2571 
   67800      299.559            0    3246.5933     6445.956    995.16299 
   67900    299.00703            0    3239.8571    6433.3247     992.0017 
   68000    305.64852            0    3267.9547    6532.3549    1030.4989 
   68100    303.14506            0    3230.9955    6468.6582    1030.7787 
   68200    299.53367            0     3227.311    6426.4032    1038.3741 
   68300     299.6927            0    3310.2029    6510.9936    1062.1992 
   68400    301.96401            0    3253.0278    6478.0767    1021.2306 
   68500    296.36236            0    3239.8525    6405.0744    1039.2787 
   68600    299.98261            0     3207.573    6411.4601     979.7377 
   68700    300.61449            0    3297.9773     6508.613    1004.6115 
   68800    297.89153            0    3176.4156    6357.9693    1002.9229 
   68900    301.31777            0    3230.7082     6448.855    1022.2081 
   69000    299.76101            0    3212.1976    6413.7179    998.15442 
   69100     303.3817            0    3296.4962    6536.6863    1102.5739 
   69200    296.87233            0    3230.6023    6401.2707    1061.7292 
   69300     301.4182            0    3255.8777    6475.0972    1039.3535 
   69400    302.82434            0     3273.789    6508.0263    1037.2407 
   69500    292.01194            0    3204.4622    6323.2205    972.99963 
   69600    303.05811            0    3233.4735    6470.2076    997.65348 
   69700    296.84531            0    3265.7391    6436.1189    1048.0169 
   69800     297.2025            0    3197.0046    6371.1993    967.66072 
   69900    301.20874            0    3255.7698    6472.7522     998.3519 
   70000    295.83921            0    3275.7358    6435.3703    1047.7471 
   70100    303.22982            0    3261.2371     6499.805    1071.1906 
   70200    293.46224            0    3235.7019    6369.9498    1057.3736 
   70300    302.22891            0    3229.6151    6457.4931     1037.004 
   70400    302.90851            0    3286.4058    6521.5422    1053.8086 
   70500    295.85825            0    3215.2161     6375.054    974.13893 
   70600    301.78517            0    3221.9111    6445.0499    945.19168 
   70700    297.26295            0    3283.3249    6458.1653    1014.0071 
   70800    304.02107            0    3239.5436    6486.5623    969.60461 
   70900    298.26623            0    3218.9666    6404.5222    932.52845 
   71000    301.57604            0    3246.6316    6467.5368    989.65829 
   71100    299.62442            0    3227.6712    6427.7327    977.44887 
   71200    297.50996            0    3221.4508    6398.9293    945.67149 
   71300    296.86272            0    3202.2785    6372.8444    970.08708 
   71400    303.82867            0    3323.8512     6568.815    1105.8937 
   71500    299.75607            0    3216.5299    6417.9974      1053.09 
   71600    304.91115            0    3232.8327    6489.3577    1067.3961 
   71700    293.46274            0    3250.7583    6385.0116    1067.1041 
   71800     301.3455            0    3278.6222    6497.0652    1072.4014 
   71900    302.01932            0    3195.2559    6420.8955    1040.7709 
   72000    300.17357            0    3172.4095    6378.3359    1050.8823 
   72100    298.96821            0    3270.3948    6463.4478    1028.5849 
   72200    301.35112            0    3245.1304    6463.6334    1000.0335 
   72300     303.9877            0    3265.0018    6511.6641    1009.4186 
   72400    298.14084            0    3224.8896     6409.106    1017.4252 
   72500    296.89181            0    3238.5701    6409.4466    1064.5205 
   72600    296.64737            0    3288.0379    6456.3038     1067.852 
   72700     298.9275            0    3244.8262    6437.4444    1044.7071 
   72800    300.09288            0     3260.732    6465.7967    1023.0512 
   72900    301.36375            0    3211.4338    6430.0717    1013.1593 
   73000    301.07384            0    3228.1161    6443.6577    1031.2011 
   73100    298.20198            0    3304.6061    6489.4755    1024.5863 
   73200    303.53029            0    3309.5085    6551.2856    1042.8927 
   73300    300.14275            0     3158.649    6364.2463    969.30133 
   73400    308.64587            0     3270.954    6567.3668    1025.4639 
   73500    296.44653            0    3286.6994    6452.8202    1056.8362 
   73600    300.49951            0    3167.5891    6376.9967    1023.5308 
   73700    300.37755            0    3269.6199    6477.7249     1072.722 
   73800     295.8997            0    3232.9099    6393.1905     1028.338 
   73900    301.78797            0    3287.3838    6510.5525    1075.2106 
   74000    303.07594            0    3181.6229    6418.5474    1011.8183 
   74100    294.70975            0    3205.6601    6353.2317    1003.7202 
   74200    301.50945            0    3280.1363    6500.3303    1033.9572 
   74300    295.03412            0    3236.2268    6387.2628    1032.7029 
   74400    304.19672            0     3200.022    6448.9167    1021.4393 
   74500    300.58824            0    3275.7599    6486.1151     1078.501 
   74600    299.75603            0    3235.9912    6437.4582    1029.4461 
   74700    299.58877            0    3298.9609    6498.6416    1062.1953 
   74800    298.80862            0    3224.8135    6416.1621    1021.3682 
   74900    299.03829            0    3265.1573    6458.9587    1041.2948 
   75000    305.39048            0    3271.3777     6533.022     1049.376 
   75100    299.41446            0    3183.9029    6381.7219    1022.0154 
   75200    296.96897            0    3224.0882    6395.7888     1035.932 
   75300     298.7312            0    3257.9332    6448.4548    1007.7256 
   75400    296.03164            0     3325.989    6487.6787    1023.0423 
   75500    301.14866            0    3198.0159    6414.3567    997.88468 
   75600    294.23114            0    3225.7408    6368.2007    1041.8204 
   75700    305.37421            0    3248.1962    6509.6668    1039.5233 
   75800    297.76619            0    3172.4938    6352.7089    983.26465 
   75900    299.73592            0     3255.271    6456.5233    1014.8837 
   76000    310.86941            0    3253.3492    6573.5098    1006.8751 
   76100     296.2276            0    3250.4616    6414.2442    1029.4365 
   76200    297.85742            0    3267.9179    6449.1074    1060.2966 
   76300    303.25381            0    3235.5127    6474.3369    1045.8466 
   76400    298.72319            0     3225.346    6415.7821    1039.7468 
   76500    302.26365            0    3272.7324    6500.9814    1039.3131 
   76600    302.88155            0    3260.5029    6495.3513    1004.7005 
   76700    299.13515            0    3189.3628    6384.1987    952.85145 
   76800     294.2821            0    3230.8038     6373.808    1052.1418 
   76900    304.96399            0    3243.3835    6500.4728     1025.631 
   77000    296.87949            0    3305.2012     6475.946    1065.9121 
   77100     307.7374            0    3235.0998    6521.8099    1077.5738 
   77200    295.65163            0    3277.8414    6435.4725    1049.4997 
   77300    303.22956            0    3178.3731    6416.9383    1011.0756 
   77400    295.04687            0    3164.0002    6315.1723    1004.2417 
   77500    302.27477            0    3330.2189    6558.5867    1065.5312 
   77600    299.24419            0    3315.2963    6511.2968    1084.3022 
   77700    309.12917            0    3128.1329    6429.7074    1028.8355 
   77800    302.79689            0    3203.2557    6437.1998    1073.7193 
   77900    293.92582            0    3221.8173    6361.0163    1040.0617 
   78000    301.39553            0    3223.6342    6442.6115    1018.7805 
   78100    300.75295            0    3293.3438    6505.4581    1045.3455 
   78200    299.42642            0    3203.7657    6401.7124    1035.2372 
   78300    297.28849            0    3270.8502    6445.9633    1032.2154 
   78400    296.90765            0     3287.552    6458.5977    993.11241 
   78500     304.1242            0    3273.3869    6521.5071    1051.2584 
   78600    301.05688            0    3232.5502    6447.9107    1032.8798 
   78700    299.33107            0    3153.9907    6350.9191    992.65213 
   78800    296.96271            0    3228.6143    6400.2481    1013.0632 
   78900    306.22145            0    3351.9628    6622.4821    1059.2628 
   79000    297.89928            0    3258.2092    6439.8458    1002.7213 
   79100    304.59409            0    3213.1887    6466.3274    1015.1754 
   79200    298.12013            0    3189.5237    6373.5189    1039.0541 
   79300    298.04218            0    3287.8574    6471.0202    1054.8269 
   79400    295.56052            0    3303.9841    6460.6421    1054.1369 
   79500    301.30769            0    3103.0619     6321.101    1004.2373 
   79600    298.02192            0    3216.2853    6399.2316    1067.8742 
   79700    293.31401            0    3259.6707    6392.3355    1078.2055 
   79800    308.22739            0    3247.7346    6539.6778    1041.1655 
   79900    297.42515            0    3201.7848    6378.3575    988.44461 
   80000    305.98617            0    3267.7403    6535.7468     1031.608 
   80100    296.16727            0    3182.9265    6346.0648     1020.154 
   80200    301.32355            0    3214.3656    6432.5741    1008.5809 
   80300    295.61754            0    3249.4253    6406.6923    1044.7514 
   80400    303.37131            0    3183.7549    6423.8341    1037.0197 
   80500    293.89122            0    3250.0105      6388.84    1030.2463 
   80600    305.30102            0    3234.4302    6495.1191    1047.2981 
   80700    296.54939            0    3227.9638    6395.1832    1022.3495 
   80800    299.41856            0    3277.7063    6475.5691    1066.3281 
   80900    302.40085            0    3248.5567    6478.2712    1028.1327 
   81000    294.28351            0    3221.4345    6364.4537    1028.7336 
   81100    300.13624            0    3228.4972     6434.025    1015.3588 
   81200    299.42339            0     3210.783    6408.6974    979.20281 
   81300     298.6564            0    3256.3069    6446.0296    1046.4906 
   81400    296.28654            0    3266.8119     6431.224    1036.2007 
   81500    304.48788            0    3267.0068    6519.0111    1020.1374 
   81600    302.28991            0    3271.3067    6499.8362     1099.982 
   81700    292.31058            0    3218.8103    6340.7581    1059.7953 
   81800    302.78185            0    3198.5456    6432.3292    1008.4498 
   81900    298.39097            0    3284.8757    6471.7635    1063.3759 
   82000    301.04744            0    3258.3137    6473.5733    1056.7742 
   82100    292.48255            0     3193.301    6317.0856     1054.988 
   82200    306.16794            0    3247.3946    6517.3424    1081.6494 
   82300    303.82999            0    3263.0625    6508.0404    1020.6102 
   82400    300.53111            0    3221.6368    6431.3818    971.96671 
   82500    300.79123            0    3244.0125    6456.5357    1019.8329 
   82600    296.74072            0    3207.5078    6376.7706    992.88166 
   82700    306.12786            0     3261.364    6530.8837    989.84133 
   82800     298.1836            0    3249.2061    6433.8793      989.816 
   82900     304.3339            0     3239.211    6489.5708    1031.5012 
   83000    296.46272            0    3242.9885    6409.2823    1034.4125 
   83100    300.58006            0    3238.1349    6448.4028    1016.6027 
   83200    300.54278            0    3198.7222     6408.592    1034.7687 
   83300    305.55682            0    3286.8383    6550.2591    1042.9652 
   83400    297.05266            0    3287.3736     6459.968     1026.634 
   83500    298.07031            0    3229.6207    6413.0839    1061.2201 
   83600    299.53537            0    3191.1802    6390.2905    1034.5593 
   83700     304.7126            0    3268.4909    6522.8954    1055.9699 
   83800    300.63739            0    3284.9673    6495.8475    1039.5588 
   83900    295.92044            0    3204.8127    6365.3148    979.76709 
   84000    301.94432            0    3209.9436    6434.7821    1038.7173 
   84100    291.29877            0    3205.4538    6316.5952    1018.5694 
   84200    310.24033            0    3299.4266    6612.8685    1018.4018 
   84300    296.54318            0     3269.081     6436.234    980.84154 
   84400    303.29396            0    3201.5071    6440.7601     1064.243 
   84500     296.4479            0    3167.1744    6333.3098    1031.6727 
   84600    300.29753            0    3292.7739    6500.0243     1019.646 
   84700    299.56205            0    3320.1125    6519.5078    1060.1052 
   84800    302.20197            0    3229.9688    6457.5592    1042.3107 
   84900    300.02743            0    3163.2874    6367.6532    994.03165 
   85000    295.29988            0    3264.0122    6417.8865    1034.5628 
   85100    305.65548            0    3310.4067    6574.8812    1068.5266 
   85200    296.79877            0    3277.7627    6447.6455    1048.7634 
   85300     300.1144            0    3210.9633    6416.2578    1021.3123 
   85400    301.66206            0    3265.7979    6487.6218    1073.7572 
   85500    306.78261            0    3256.3638    6532.8765    1039.1597 
   85600    299.27037            0    3193.8318    6390.1119     1015.074 
   85700    299.86454            0    3257.8792    6460.5052    1068.4042 
   85800     308.4805            0    3334.3035      6628.95    1083.8591 
   85900     302.8408            0    3273.6268      6508.04    1030.8226 
   86000    297.92519            0    3226.2631    6408.1764    1071.4549 
   86100    303.94958            0     3194.118    6440.3732    1071.1145 
   86200     297.8714            0     3230.678    6412.0168    1069.9645 
   86300    315.63856            0    3250.8396     6621.936    1071.6895 
   86400    307.99928            0    3304.4443    6593.9513    1043.5914 
   86500    295.10323            0    3235.0517    6386.8257    977.06402 
   86600    306.79701            0    3217.0636      6493.73    978.01664 
   86700    297.61875            0    3259.9558    6438.5962    1015.5095 
   86800    297.03214            0    3254.5469    6426.9222    1021.9346 
   86900    311.36767            0    3245.7387    6571.2209    1009.8108 
   87000    299.01477            0    3279.1451    6472.6953    1051.9018 
   87100    298.23257            0    3221.6869    6406.8831    1021.0832 
   87200    299.60705            0    3205.5058    6405.3818    1016.4518 
   87300     301.7349            0    3226.7273    6449.3292    1051.3717 
   87400    296.65454            0    3244.7283    6413.0708    1032.4748 
   87500    298.82254            0    3262.6214    6454.1185    1015.7724 
   87600    297.12692            0    3255.1422    6428.5297    1058.9121 
   87700    299.21275            0     3190.896    6386.5607    1046.4316 
   87800    300.67055            0    3205.0745    6416.3089    1071.0229 
   87900    298.77456            0    3290.2098    6481.1945    1092.2392 
   88000    297.05445            0    3218.2106    6390.8241    1020.0419 
   88100    302.24382            0    3291.8065    6519.8437    1071.7518 
   88200    299.01226            0    3242.7182    6436.2416    1062.4561 
   88300     305.6286            0    3180.9459    6445.1334    1039.9242 
   88400    296.22234            0    3273.5657    6437.2921    1074.3283 
   88500    303.33805            0    3387.5914    6627.3154    1091.0564 
   88600    298.79815            0    3268.7549    6459.9916    1049.6898 
   88700    297.29037            0    3153.8076    6328.9408     1041.744 
   88800    301.79803            0    3230.8031    6454.0793    1025.2992 
   88900    301.60351            0    3340.5196    6561.7181     1059.509 
   89000    295.06326            0    3228.6081    6379.9552    973.48455 
   89100    302.03278            0    3248.9888    6474.7721    1046.9112 
   89200    299.70515            0    3229.1608    6430.0844     1045.795 
   89300    296.63223            0    3250.6259      6418.73    1067.2684 
   89400    303.44854            0    3255.8125    6496.7164    1037.8849 
   89500    305.76919            0     3261.936     6527.625    1056.4199 
   89600    297.92289            0    3150.7117    6332.6004    1035.2044 
   89700    300.70119            0      3195.62    6407.1817    1023.8588 
   89800    300.11486            0    3320.2801    6525.5795    1066.2535 
   89900     300.8247            0    3206.2538    6419.1345    1029.9867 
   90000    293.75004            0    3300.1762    6437.4979    988.81513 
   90100    300.94617            0     3293.784    6507.9621    997.83749 
   90200    297.29793            0    3159.3676    6334.5815    1042.1634 
   90300    303.96725            0    3211.6909    6458.1348    1045.2334 
   90400    301.78724            0     3258.866    6482.0269    1010.3619 
   90500    296.39078            0    3266.0893    6431.6147    1049.1611 
   90600    301.12311            0    3256.0031    6472.0709    1019.1057 
   90700    295.10178            0    3252.6387    6404.3973     1016.341 
   90800    305.28621            0    3304.2438    6564.7745    1092.2986 
   90900    298.07534            0    3241.5611    6425.0779    1036.3813 
   91000    299.27831            0    3158.2974    6354.6623    960.20043 
   91100    305.86711            0    3340.5966    6607.3315    1062.2402 
   91200    302.08611            0    3292.6333    6518.9861    1055.0281 
   91300    302.80899            0    3210.9644    6445.0378    1048.8154 
   91400    297.33133            0    3211.0986    6386.6694    1004.2512 
   91500    295.97147            0    3238.4507    6399.4978    1056.1415 
   91600    297.03353            0    3210.5032    6382.8933    1025.2387 
   91700    307.14064            0    3262.5359    6542.8724    1058.0627 
   91800     297.1071            0    3237.7518    6410.9277    1090.2718 
   91900    301.74638            0    3186.2152    6408.9397    1047.0976 
   92000    293.88536            0    3259.5846    6398.3515    1041.0463 
   92100    307.85966            0    3328.6912    6616.7071     1057.902 
   92200    292.65925            0     3250.236    6375.9077     1006.952 
   92300    305.40388            0    3240.6783    6502.4658    1004.4332 
   92400    299.69443            0     3224.523    6425.3321    1010.9986 
   92500    296.40049            0    3253.0588    6418.6879    1017.1716 
   92600    304.47318            0    3222.4031    6474.2506    1006.0277 
   92700     300.7357            0    3278.0076    6489.9378    1011.9395 
   92800     296.2672            0    3263.2988    6427.5043    1045.9009 
   92900    301.52114            0    3180.1553    6400.4742    1037.8952 
   93000    297.74626            0     3228.316    6408.3182    1041.6878 
   93100     302.0864            0    3280.8328    6507.1887     1054.529 
   93200    298.88111            0    3334.1019    6526.2246     1051.523 
   93300    302.02319            0    3171.2805    6396.9613    992.59866 
   93400    298.11922            0    3161.0831    6345.0686    1027.1605 
   93500    299.29352            0    3304.2979    6500.8253    1085.0181 
   93600    299.58533            0    3266.7754    6466.4194    1025.1645 
   93700    299.12409            0    3206.4874    6401.2052    1036.0081 
   93800    299.52173            0    3181.5207    6380.4853    1042.8152 
   93900    295.43119            0    3329.6034    6484.8801     1062.587 
   94000     308.7533            0    3205.5118    6503.0719    1017.2545 
   94100    298.92907            0    3234.5908    6427.2257    1057.8214 
   94200    297.99391            0    3187.0531    6369.7002    1028.6143 
   94300    295.53587            0    3287.4827    6443.8775    1068.3151 
   94400     306.1913            0    3202.9477     6473.145    1046.6634 
   94500    300.67927            0    3300.6977    6512.0252    1071.2799 
   94600    306.18979            0    3257.6853    6527.8665    1050.7467 
   94700    298.17604            0    3218.5397    6403.1321    1053.7311 
   94800    302.09072            0    3222.5271    6448.9292    1020.6343 
   94900    300.82495            0    3273.7232    6486.6065    986.69588 
   95000    294.45048            0    3384.0699    6528.8724    1046.4944 
   95100    301.96386            0    3228.3611    6453.4084    967.04835 
   95200    301.54523            0    3260.9552    6481.5313    1036.8735 
   95300    298.97416            0    3177.0024    6370.1189    1046.1923 
   95400    298.17577            0    3271.7267    6456.3162    1070.0731 
   95500     303.0801            0    3229.7793    6466.7483     1031.099 
   95600    297.35774            0    3239.4012    6415.2539    1036.6674 
   95700    305.76554            0    3186.9733    6452.6234    1006.4268 
   95800    302.97076            0    3290.9234    6526.7245    1051.9084 
   95900    296.96672            0    3322.3773    6494.0539     1084.856 
   96000    305.11308            0     3132.798    6391.4797    979.60309 
   96100    297.55127            0    3221.9615    6399.8812    991.66439 
   96200    294.72906            0     3263.417    6411.1949    1023.9494 
   96300    299.93575            0     3319.283    6522.6695    1030.5866 
   96400    304.53231            0    3217.6917    6470.1705    955.66818 
   96500    294.01583            0     3208.856    6349.0163     1033.855 
   96600    297.16138            0    3242.2441    6415.9997     1031.998 
   96700    302.15116            0     3239.868    6466.9156    959.64817 
   96800      300.131            0    3295.9383    6501.4102    1021.1257 
   96900    306.46144            0    3259.7264    6532.8088    1051.9127 
   97000    294.64376            0    3225.1963    6372.0631     1025.072 
   97100    303.00107            0    3229.6011    6465.7259     1029.362 
   97200     301.0511            0    3272.3046    6487.6033    1069.1335 
   97300    301.76765            0    3195.6257    6418.5774    1018.7703 
   97400    293.77203            0    3211.2831    6348.8396    1035.9185 
   97500     298.2351            0    3276.8641    6462.0873    1094.3855 
   97600    304.84979            0     3177.307    6433.1766    1001.0223 
   97700    299.23597            0    3273.5734    6469.4861    993.18998 
   97800    305.61462            0    3250.2598     6514.298    1005.8001 
   97900    302.62991            0    3235.9085    6468.0693    1050.7098 
   98000    300.31613            0    3237.1055    6444.5546    1036.5504 
   98100    303.61145            0    3252.8651     6495.509    1019.8911 
   98200    287.99642            0    3222.9962    6298.8677    990.36913 
   98300    301.39576            0    3189.0123    6407.9921    985.20491 
   98400    299.68556            0     3232.323    6433.0374    1020.6703 
   98500    296.89092            0    3208.1555    6379.0226    969.20708 
   98600    300.93516            0    3300.7246    6514.7851    989.24031 
   98700    303.68923            0    3252.4916    6495.9662    983.11902 
   98800    297.72989            0    3252.0528    6431.8802    998.36798 
   98900     297.0816            0    3205.1533    6378.0568    966.59207 
   99000    305.98956            0    3251.8225    6519.8652    1020.7297 
   99100    294.82794            0    3264.5415    6413.3754    1009.0999 
   99200    299.77988            0    3272.1024    6473.8242    1045.0551 
   99300     295.4726            0    3212.8693    6368.5883    1073.4136 
   99400    303.52487            0    3254.5313    6496.2505    1103.7024 
   99500    295.70164            0    3202.9602    6361.1254    1061.9158 
   99600    301.14418            0    3228.2019    6444.4947    1079.2001 
   99700    296.85212            0    3256.0892    6426.5418    1041.1046 
   99800    299.20927            0     3309.827    6505.4545    1051.1773 
   99900    310.31102            0    3265.1206    6579.3175    1064.5834 
  100000    300.21135            0    3209.4905    6415.8204    1006.0342 
  100100    298.45636            0    3240.6501    6428.2364    1053.0539 
  100200      307.911            0     3293.852    6582.4162    1096.9437 
  100300    309.39017            0    3222.5008    6526.8628    1029.0243 
  100400     298.7633            0    3257.3652    6448.2297    1039.4365 
  100500    307.00562            0     3258.808    6537.7024     1023.054 
  100600     297.0837            0    3184.1516    6357.0775    957.45335 
  100700    295.87727            0    3193.6633    6353.7043    981.68132 
  100800    305.50495            0    3280.0136    6542.8805    1046.7215 
  100900    299.24951            0    3232.5089    6428.5661    969.71337 
  101000    304.85733            0    3262.4261    6518.3763    1005.2194 
  101100    294.33926            0    3310.6745    6454.2891    1022.7251 
  101200    299.27324            0    3226.8093    6423.1201    1036.5388 
  101300    301.58204            0    3178.4729    6399.4422    1037.2967 
  101400    300.14358            0    3252.1689     6457.775    1024.7187 
  101500    304.65303            0    3319.8894    6573.6576    1071.8405 
  101600    300.34246            0    3260.0408     6467.771    1073.6909 
  101700    299.95802            0     3225.892    6429.5163     1048.198 
  101800    293.03724            0    3216.2787    6345.9874    1073.3675 
  101900    296.43886            0    3216.7122    6382.7511    1041.0176 
  102000    296.20676            0    3279.1614    6442.7215    1036.7942 
  102100    304.81163            0    3277.7567    6533.2188    1018.4191 
  102200    300.89915            0    3247.6258    6461.3016    1042.3795 
  102300    300.69446            0    3245.9946    6457.4844    1072.7264 
  102400    296.57795            0    3182.2533    6349.7777    1053.1501 
  102500    304.01046            0    3203.2611    6450.1665    1030.9164 
  102600    301.56719            0     3291.781    6512.5918    1049.2729 
  102700    298.87448            0    3297.3151    6489.3669    1036.8385 
  102800    303.93596            0    3212.4081    6458.5178    1051.8288 
  102900    307.34515            0     3194.091    6476.6116    1060.5853 
  103000    306.05776            0    3236.3934    6505.1645    1047.4184 
  103100    297.98411            0     3255.308    6437.8505    1032.3771 
  103200    300.89661            0    3299.0436    6512.6923    1076.5786 
[...]
  588300    310.59473            0    3240.8395    6558.0665    1066.7783 
  588400    306.25229            0    3287.2222    6558.0709    1115.8198 
  588500    301.74062            0    3335.4216    6558.0845    1058.3955 
  588600    300.41679            0    3349.5661    6558.0903     1068.273 
  588700    303.49211            0      3316.71    6558.0793    1120.7699 
  588800    305.31107            0    3297.2786    6558.0748    1074.6498 
  588900    303.00506            0    3321.9228    6558.0903    1052.5023 
  589000    305.43234            0    3295.9979    6558.0894    1120.5641 
  589100    303.33255            0    3318.4193    6558.0845    1110.1431 
  589200    304.29767            0    3308.1051     6558.078     1065.649 
  589300    305.83128            0    3291.7292    6558.0814    1130.5589 
  589400    307.28427            0    3276.2147    6558.0852    1108.0052 
  589500    298.97957            0    3364.9199    6558.0941    1073.7127 
  589600    306.16449            0     3288.175    6558.0859    1083.9127 
  589700    306.75976            0    3281.8001    6558.0687    1096.1121 
  589800    301.62062            0    3336.7121    6558.0934    1060.6474 
  589900    309.20001            0    3255.7492    6558.0803     1042.789 
  590000    302.18683            0    3330.6644    6558.0931    1092.4053 
  590100    310.98318            0    3236.7101    6558.0858    1046.9696 
  590200    305.06511            0    3299.9104    6558.0797    1057.5676 
  590300    304.69509            0    3303.8519    6558.0693    1063.2361 
  590400    306.11268            0    3288.7284     6558.086     1058.012 
  590500    300.36653            0    3350.1111    6558.0985    1061.2455 
  590600    304.41917            0    3306.8167    6558.0872    1144.4611 
  590700    304.51333            0    3305.8046    6558.0809    1132.1378 
  590800    308.08445            0    3267.6602    6558.0767    1055.7058 
  590900    303.28275            0    3318.9416    6558.0749    1088.9972 
  591000    301.99474            0    3332.7135    6558.0906    1137.5896 
  591100    311.36902            0    3232.5763    6558.0729    1103.5403 
  591200     303.5326            0    3316.2848    6558.0865    1104.6568 
  591300    304.63753            0    3304.4938    6558.0965    1092.8342 
  591400    308.07938            0    3267.7126    6558.0751    1070.2344 
  591500    297.87573            0    3376.7157    6558.1007    1089.8327 
  591600    306.18155            0    3287.9887    6558.0819    1063.8339 
  591700    303.90832            0    3312.2808    6558.0954    1129.0117 
  591800    304.99991            0    3300.6185    6558.0916    1104.2577 
  591900    309.94415            0    3247.7864     6558.065    1062.9512 
  592000    300.59806            0    3347.6321    6558.0922    1091.9127 
  592100     300.3089            0    3350.7223    6558.0942    1035.5694 
  592200    305.38573            0    3296.4999    6558.0935    1044.9735 
  592300    307.70956            0     3271.658    6558.0707    1074.7591 
  592400    303.79843            0    3313.4709    6558.1118    1079.8391 
  592500    306.68459            0    3282.5991    6558.0649    986.69829 
  592600    299.55323            0    3358.7987    6558.0998    1048.3632 
  592700    305.49503            0    3295.3313    6558.0923    1064.7869 
  592800    305.16224            0    3298.8816    6558.0882    1042.8936 
  592900     303.9854            0    3311.4511    6558.0888    1094.5103 
  593000     311.6079            0    3230.0207    6558.0685     1113.344 
  593100    298.45025            0    3370.5756    6558.0966    1157.4572 
  593200    304.82415            0    3302.4956    6558.0914     1115.788 
  593300    305.61932            0    3293.9843    6558.0727    1108.9349 
  593400    307.30138            0    3276.0436    6558.0969    1081.9976 
  593500    301.65801            0     3336.308    6558.0887     1095.998 
  593600    306.74085            0    3282.0161    6558.0828    1083.2688 
  593700    310.51896            0    3241.6539    6558.0717    1096.5506 
  593800    307.11902            0    3277.9726    6558.0781    1044.8265 
  593900    301.35612            0    3339.5306     6558.087    1028.6048 
  594000    304.32316            0    3307.8334    6558.0785    1051.6466 
  594100    307.48021            0    3274.1163    6558.0795    1075.1529 
  594200    306.54266            0    3284.1306    6558.0805    1051.6323 
  594300    303.12503            0    3320.6456    6558.0945    1099.4372 
  594400    305.20617            0    3298.4122    6558.0881    1076.4764 
  594500    304.40346            0    3306.9837    6558.0864    1041.4167 
  594600    305.18758            0    3298.6047     6558.082    1026.7012 
  594700    304.67335            0    3304.0986    6558.0838    1056.0468 
  594800    303.83973            0    3312.9994    6558.0814    1027.5648 
  594900     302.8413            0    3323.6608    6558.0794    1003.5568 
  595000     305.4684            0     3295.615    6558.0915    1065.4189 
  595100    307.08938            0    3278.2988    6558.0879    1065.1141 
  595200    302.08878            0    3331.7087    6558.0902      1039.23 
  595300    307.11402            0    3278.0296    6558.0818     1053.589 
  595400    304.08051            0    3310.4273    6558.0809    1064.2016 
  595500     303.2935            0    3318.8378    6558.0859    1081.7136 
  595600     305.5498            0    3294.7383    6558.0842    1105.4242 
  595700    305.93129            0    3290.6501    6558.0704    1064.4275 
  595800    304.83366            0    3302.3822    6558.0797    1046.9146 
  595900     308.9164            0    3258.7749     6558.077    1091.3106 
  596000    303.75912            0     3313.852    6558.0731    1068.6227 
  596100    305.32272            0    3297.1664    6558.0871    1075.4945 
  596200     306.0243            0    3289.6496    6558.0633    1057.5665 
  596300    303.94135            0    3311.9339    6558.1011    1110.9259 
  596400    303.65164            0    3315.0118     6558.085    1049.0597 
  596500     310.4723            0    3242.1632    6558.0826    1047.9346 
  596600     302.0814            0    3331.7811    6558.0837    1071.0438 
  596700    304.20518            0    3309.1059     6558.091     1088.428 
  596800    306.08981            0    3288.9692    6558.0825    1081.0135 
  596900    301.16691            0    3341.5517    6558.0874    1048.4941 
  597000    307.67537            0    3272.0331    6558.0806    1021.3577 
  597100     304.8276            0    3302.4474    6558.0801    1079.0178 
  597200    305.88848            0    3291.1195    6558.0826    1100.0606 
  597300    307.01495            0    3279.0767    6558.0707    1103.2782 
  597400     307.7139            0    3271.6122    6558.0712     1087.039 
  597500    304.36787            0      3307.37    6558.0927    1096.3731 
  597600    307.60233            0    3272.8116     6558.079    1032.7181 
  597700    300.21634            0    3351.7007     6558.084    1029.6613 
  597800    310.58611            0    3240.9414    6558.0764    1052.1233 
  597900    304.04468            0    3310.8115    6558.0824    1080.2107 
  598000    297.55099            0    3380.1929    6558.1097    1069.7097 
  598100    308.07272            0     3267.777    6558.0684    1048.3853 
  598200    305.97825            0    3290.1704    6558.0923     1050.224 
  598300    303.30123            0    3318.7485    6558.0792    1018.2745 
  598400    303.81073            0    3313.3128     6558.085    1057.1268 
  598500    308.21408            0    3266.2835    6558.0847    1087.2331 
  598600    303.32801            0    3318.4746    6558.0913    1089.9518 
  598700    301.92351            0    3333.4756    6558.0919    1078.8491 
  598800    310.41562            0     3242.754    6558.0681    1056.3438 
  598900    302.08742            0    3331.7254    6558.0922    1065.8493 
  599000    304.41003            0    3306.9129    6558.0858    1060.9872 
  599100    312.88938            0    3216.3291    6558.0636    1060.0256 
  599200    301.88562            0    3333.8706    6558.0822    1077.4889 
  599300    308.87726            0    3259.2058    6558.0898    1085.7148 
  599400    304.86996            0    3302.0065    6558.0916    1094.4861 
  599500    304.70221            0    3303.8045    6558.0979    1036.7687 
  599600    302.17274            0    3330.8144    6558.0924     1054.889 
  599700     304.2315            0     3308.825    6558.0911    1092.5909 
  599800    306.80393            0    3281.3519    6558.0922    1062.1615 
  599900    303.12492            0    3320.6302    6558.0779     1061.011 
  600000    304.15449            0    3309.6504    6558.0941    1075.6843 
Loop time of 70.3212 on 8 procs for 300000 steps with 3584 atoms

Pair  time (%) = 0.509214 (0.724126)
Bond  time (%) = 40.6262 (57.7723)
Neigh time (%) = 3.52186 (5.00824)
Comm  time (%) = 19.8201 (28.1851)
Outpt time (%) = 0.277959 (0.395271)
Other time (%) = 5.56589 (7.91495)

Nlocal:    448 ave 465 max 423 min
Histogram: 1 0 0 1 1 2 0 0 0 3
Nghost:    1659 ave 1684 max 1642 min
Histogram: 3 0 0 0 2 1 1 0 0 1
Neighs:    8.25 ave 25 max 0 min
Histogram: 3 1 0 0 2 1 0 0 0 1

Total # of neighbors = 66
Ave neighs/atom = 0.0184152
Ave special neighs/atom = 157.056
Neighbor list builds = 2940
Dangerous builds = 0
# −−−−−−−−−−−−−− Flux calculation in nve −−−−−−−−−−−−−−−
reset_timestep  0
compute         PE all pe/atom
compute         KE all ke/atom

variable        CX atom (vx*(c_KE+c_PE))
compute         Jcx all reduce sum v_CX

variable        CZ atom (vz*(c_KE+c_PE))
compute         Jcz all reduce sum v_CZ

variable        CY atom (vy*(c_KE+c_PE))
compute         Jcy all reduce sum v_CY

compute         SA all stress/atom virial

variable        VX atom -(c_SA[1]*vx+c_SA[4]*vy+c_SA[5]*vz)*1.4593e-5
compute         Jvx all reduce sum v_VX

variable        VZ atom -(c_SA[3]*vz+c_SA[6]*vy+c_SA[5]*vx)*1.4593e-5
compute         Jvz all reduce sum v_VZ

variable        VY atom -(c_SA[2]*vy+c_SA[6]*vz+c_SA[4]*vx)*1.4593e-5
compute         Jvy all reduce sum v_VY

variable        Jx equal (c_Jcx+c_Jvx)/vol
variable        Jz equal (c_Jcz+c_Jvz)/vol
variable        Jy equal (c_Jcy+c_Jvy)/vol

fix             JJTx all ave/correlate $s $p $d                 v_Jx type auto file J0Jt_tx.dat ave running
fix             JJTx all ave/correlate 5 $p $d                 v_Jx type auto file J0Jt_tx.dat ave running
fix             JJTx all ave/correlate 5 20000 $d                 v_Jx type auto file J0Jt_tx.dat ave running
fix             JJTx all ave/correlate 5 20000 100000                 v_Jx type auto file J0Jt_tx.dat ave running

fix             JJTz all ave/correlate $s $p $d                 v_Jz type auto file J0Jt_tz.dat ave running
fix             JJTz all ave/correlate 5 $p $d                 v_Jz type auto file J0Jt_tz.dat ave running
fix             JJTz all ave/correlate 5 20000 $d                 v_Jz type auto file J0Jt_tz.dat ave running
fix             JJTz all ave/correlate 5 20000 100000                 v_Jz type auto file J0Jt_tz.dat ave running

fix             JJTy all ave/correlate $s $p $d                 v_Jy type auto file J0Jt_ty.dat ave running
fix             JJTy all ave/correlate 5 $p $d                 v_Jy type auto file J0Jt_ty.dat ave running
fix             JJTy all ave/correlate 5 20000 $d                 v_Jy type auto file J0Jt_ty.dat ave running
fix             JJTy all ave/correlate 5 20000 100000                 v_Jy type auto file J0Jt_ty.dat ave running

run             1000000
Memory usage per processor = 13.1984 Mbytes
Step Temp E_pair E_mol TotEng Press 
       0    304.15449            0    3309.6504    6558.0941    1075.6843 
     100    305.69588            0    3293.1715    6558.0776    1033.0351 
     200    304.74024            0    3303.3771    6558.0767    976.61099 
     300    309.32841            0    3254.3626     6558.065    1008.6277 
     400    305.87699            0    3291.2438    6558.0841    1087.5192 
     500    307.21652            0    3276.9263    6558.0732    1050.3563 
     600    304.10168            0    3310.1969    6558.0766    1001.9736 
     700    306.39794            0    3285.6697     6558.074    1008.7056 
     800    300.31251            0    3350.6892    6558.0995    1041.9575 
     900    304.04687            0    3310.7963    6558.0906     1026.309 
    1000     310.5213            0    3241.6261    6558.0688    1052.9671 
    1100    305.79791            0    3292.0902    6558.0861    1072.4954 
    1200    306.84965            0    3280.8326    6558.0613    1054.8329 
    1300    304.60691            0    3304.8177    6558.0933    1121.1075 
    1400    306.91645            0    3280.1412    6558.0833    1095.0548 
    1500    299.33976            0    3361.0687      6558.09    1118.3164 
    1600    303.64711            0    3315.0665    6558.0912    1148.7206 
    1700    309.46644            0    3252.9058    6558.0824    1105.3032 
    1800    302.95825            0    3322.4186    6558.0861    1077.9666 
    1900    304.57203            0    3305.1745    6558.0777    1088.0021 
    2000    304.73137            0    3303.4589    6558.0638    1021.7549 
    2100    307.33353            0    3275.6837    6558.0803    1064.9199 
    2200    309.06005            0    3257.2372    6558.0735    1090.3139 
    2300    304.89756            0    3301.7017    6558.0815    1037.7802 
    2400    305.29186            0    3297.4847    6558.0758    1032.2861 
    2500    303.55036            0    3316.1024    6558.0939    1054.1652 
    2600    313.51009            0    3209.7006    6558.0644    1052.7284 
    2700    303.30322            0    3318.7229    6558.0749    1104.7868 
    2800     308.3201            0     3265.139    6558.0724    1028.8119 
    2900    297.52808            0    3380.4229    6558.0949    1048.7245 
    3000    313.18368            0    3213.1812    6558.0588    1037.4182 
    3100    304.19418            0    3309.2216    6558.0891    1059.1457 
    3200    304.01021            0    3311.1733     6558.076    1049.9046 
    3300    303.88593            0    3312.5038    6558.0792    1065.6028 
    3400    302.46043            0    3327.7346    6558.0854    1047.9059 
    3500    303.66818            0    3314.8446    6558.0943    1093.7262 
    3600    305.64251            0    3293.7511    6558.0872    1107.1504 
    3700    306.08155            0    3289.0466    6558.0717    1050.9973 
    3800    301.45061            0    3338.5193    6558.0848    1085.1977 
    3900    307.99988            0    3268.5658    6558.0792     1080.449 
    4000    302.92467            0    3322.7727    6558.0816     1045.613 
    4100     305.5553            0     3294.684    6558.0887    1050.6749 
    4200    302.96062            0    3322.3955    6558.0883    1103.2193 
    4300    309.97312            0    3247.4784    6558.0665    1023.9968 
    4400    302.45651            0    3327.7714    6558.0803     1055.793 
    4500    305.38157            0    3296.5384    6558.0876    1108.8048 
    4600    303.26854            0    3319.0944    6558.0759    1082.6833 
    4700     311.6252            0    3229.8401    6558.0727     1069.764 
    4800     302.3952            0    3328.4365    6558.0905    1092.0146 
    4900    302.77651            0    3324.3623    6558.0888    1057.8099 
    5000    309.04699            0    3257.3769    6558.0737    1023.3383 
    5100    302.25111            0    3329.9753    6558.0904     1042.274 
    5200    303.34055            0    3318.3437    6558.0943    1040.2582 
    5300    306.06023            0    3289.2847    6558.0821    1042.0247 
    5400    303.20221            0    3319.8071    6558.0802    1061.0949 
    5500    311.27392            0    3233.5934    6558.0743     1044.366 
    5600    304.07789            0    3310.4611    6558.0867    1037.1163 
    5700    301.30066            0    3340.1204    6558.0845    1060.0371 
    5800    306.88047            0    3280.5369    6558.0947    1020.0607 
    5900    305.97054            0     3290.249    6558.0886     1021.053 
    6000    303.79484            0    3313.4859    6558.0885    1041.1366 
    6100    305.36161            0    3296.7613    6558.0973    1059.4943 
    6200     305.8617            0     3291.389    6558.0661    1061.9422 
    6300     307.4932            0    3273.9859    6558.0879    1015.0576 
    6400    302.86613            0    3323.3943     6558.078    1056.3779 
    6500    305.06077            0     3299.971    6558.0939    1065.0157 
    6600    304.52673            0    3305.6642    6558.0835    1006.7863 
    6700     304.1421            0    3309.7735    6558.0849    997.09876 
    6800    307.01119            0    3279.1265    6558.0804    1036.3985 
    6900    304.84991            0    3302.2131     6558.084    1089.9492 
    7000    307.67791            0    3272.0046    6558.0792    1075.5684 
    7100    306.21752            0    3287.5964    6558.0738    1068.4717 
    7200    305.90082            0     3290.994    6558.0889    1110.8235 
    7300    304.51114            0    3305.8169    6558.0698    1091.1834 
    7400    310.19482            0     3245.124    6558.0799    1070.6358 
    7500    300.92739            0    3344.1131    6558.0906    1075.4711 
    7600    308.31781            0    3265.1681     6558.077     1084.015 
    7700    302.78512            0    3324.2631    6558.0817    1123.0694 
    7800    310.73666            0    3239.3271    6558.0699     1046.617 
    7900     305.4532            0    3295.7603    6558.0744     1051.081 
    8000    307.88118            0    3269.8411    6558.0867    1048.8722 
    8100    305.66243            0    3293.5272     6558.076    1014.3399 
    8200    303.19004            0     3319.939    6558.0821    997.02905 
    8300    304.83846            0    3302.3304     6558.079    1077.2006 
    8400    307.86852            0    3269.9589    6558.0694    1041.6596 
    8500    307.14516            0    3277.6998    6558.0845    1032.5475 
    8600     301.1349            0    3341.9012    6558.0949    1103.2046 
    8700    302.74884            0    3324.6576    6558.0886    1084.9653 
    8800    303.45911            0    3317.0743    6558.0912    1083.9844 
    8900    311.68757            0    3229.1601    6558.0589    1017.7929 
    9000    303.56631            0    3315.9249    6558.0867    1035.7288 
    9100    303.68722            0    3314.6355    6558.0886    1006.8805 
    9200    307.41871            0     3274.787    6558.0934    1060.6263 
    9300     304.5152            0    3305.7878     6558.084    1058.3477 
    9400    301.38285            0    3339.2395    6558.0814     1043.891 
    9500    302.22196            0    3330.2769    6558.0807    1038.6178 
    9600    310.44381            0    3242.4732    6558.0883    1052.8137 
    9700    306.85618            0    3280.7941    6558.0925     1081.555 
    9800     298.7131            0    3367.7669    6558.0952    1100.2859 
    9900    307.91481            0    3269.4787    6558.0834    1046.8348 
   10000    299.99964            0    3354.0274    6558.0963     1077.105 
Loop time of 479.041 on 8 procs for 1000000 steps with 3584 atoms

Pair  time (%) = 5.63342 (1.17598)
Bond  time (%) = 150.512 (31.4194)
Neigh time (%) = 11.8019 (2.46366)
Comm  time (%) = 70.0092 (14.6144)
Outpt time (%) = 0.00287715 (0.000600605)
Other time (%) = 241.082 (50.326)

Nlocal:    448 ave 463 max 430 min
Histogram: 1 0 0 1 1 1 3 0 0 1
Nghost:    1659 ave 1677 max 1644 min
Histogram: 1 0 0 3 1 1 1 0 0 1
Neighs:    9.875 ave 25 max 0 min
Histogram: 3 1 0 0 1 0 0 2 0 1

Total # of neighbors = 79
Ave neighs/atom = 0.0220424
Ave special neighs/atom = 157.056
Neighbor list builds = 9801
Dangerous builds = 0
