LAMMPS data file.
 7168 atoms
 33696 bonds
 4 atom types
 4 bond types
 0 80  xlo xhi
 0 80  ylo yhi
 0 80  zlo zhi

Masses

1 39.948
2 63.546
3 39.948
4 63.546

Atoms

1 1 2 0 0.00000 0.00000 0.00000
2 1 1 0 3.33333 0.00000 0.00000
3 1 1 0 6.66667 0.00000 0.00000
4 1 1 0 0.00000 3.33333 0.00000
5 1 1 0 0.00000 6.66667 0.00000
6 1 1 0 0.00000 0.00000 3.33333
7 1 1 0 0.00000 0.00000 6.66667
8 1 2 0 0.00000 0.00000 10.00000
9 1 2 0 0.00000 0.00000 20.00000
10 1 2 0 0.00000 0.00000 30.00000
11 1 2 0 0.00000 0.00000 40.00000
12 1 2 0 0.00000 0.00000 50.00000
13 1 2 0 0.00000 0.00000 60.00000
14 1 2 0 0.00000 0.00000 70.00000
15 1 2 0 0.00000 10.00000 0.00000
16 1 2 0 0.00000 10.00000 10.00000
17 1 2 0 0.00000 10.00000 20.00000
18 1 2 0 0.00000 10.00000 30.00000
19 1 2 0 0.00000 10.00000 40.00000
20 1 2 0 0.00000 10.00000 50.00000
21 1 2 0 0.00000 10.00000 60.00000
22 1 2 0 0.00000 10.00000 70.00000
23 1 2 0 0.00000 20.00000 0.00000
24 1 2 0 0.00000 20.00000 10.00000
25 1 2 0 0.00000 20.00000 20.00000
26 1 2 0 0.00000 20.00000 30.00000
27 1 2 0 0.00000 20.00000 40.00000
28 1 2 0 0.00000 20.00000 50.00000
29 1 2 0 0.00000 20.00000 60.00000
30 1 2 0 0.00000 20.00000 70.00000
31 1 2 0 0.00000 30.00000 0.00000
32 1 2 0 0.00000 30.00000 10.00000
33 1 2 0 0.00000 30.00000 20.00000
34 1 2 0 0.00000 30.00000 30.00000
35 1 2 0 0.00000 30.00000 40.00000
36 1 2 0 0.00000 30.00000 50.00000
37 1 2 0 0.00000 30.00000 60.00000
38 1 2 0 0.00000 30.00000 70.00000
39 1 2 0 0.00000 40.00000 0.00000
40 1 2 0 0.00000 40.00000 10.00000
41 1 2 0 0.00000 40.00000 20.00000
42 1 2 0 0.00000 40.00000 30.00000
43 1 2 0 0.00000 40.00000 40.00000
44 1 2 0 0.00000 40.00000 50.00000
45 1 2 0 0.00000 40.00000 60.00000
46 1 2 0 0.00000 40.00000 70.00000
47 1 2 0 0.00000 50.00000 0.00000
48 1 2 0 0.00000 50.00000 10.00000
49 1 2 0 0.00000 50.00000 20.00000
50 1 2 0 0.00000 50.00000 30.00000
51 1 2 0 0.00000 50.00000 40.00000
52 1 2 0 0.00000 50.00000 50.00000
53 1 2 0 0.00000 50.00000 60.00000
54 1 2 0 0.00000 50.00000 70.00000
55 1 2 0 0.00000 60.00000 0.00000
56 1 2 0 0.00000 60.00000 10.00000
57 1 2 0 0.00000 60.00000 20.00000
58 1 2 0 0.00000 60.00000 30.00000
59 1 2 0 0.00000 60.00000 40.00000
60 1 2 0 0.00000 60.00000 50.00000
61 1 2 0 0.00000 60.00000 60.00000
62 1 2 0 0.00000 60.00000 70.00000
63 1 2 0 0.00000 70.00000 0.00000
64 1 2 0 0.00000 70.00000 10.00000
65 1 2 0 0.00000 70.00000 20.00000
66 1 2 0 0.00000 70.00000 30.00000
67 1 2 0 0.00000 70.00000 40.00000
68 1 2 0 0.00000 70.00000 50.00000
69 1 2 0 0.00000 70.00000 60.00000
70 1 2 0 0.00000 70.00000 70.00000
71 1 2 0 10.00000 0.00000 0.00000
72 1 2 0 10.00000 0.00000 10.00000
73 1 2 0 10.00000 0.00000 20.00000
74 1 2 0 10.00000 0.00000 30.00000
75 1 2 0 10.00000 0.00000 40.00000
76 1 2 0 10.00000 0.00000 50.00000
77 1 2 0 10.00000 0.00000 60.00000
78 1 2 0 10.00000 0.00000 70.00000
79 1 2 0 10.00000 10.00000 0.00000
80 1 2 0 10.00000 10.00000 10.00000
81 1 2 0 10.00000 10.00000 20.00000
82 1 2 0 10.00000 10.00000 30.00000
83 1 2 0 10.00000 10.00000 40.00000
84 1 2 0 10.00000 10.00000 50.00000
85 1 2 0 10.00000 10.00000 60.00000
86 1 2 0 10.00000 10.00000 70.00000
87 1 2 0 10.00000 20.00000 0.00000
88 1 2 0 10.00000 20.00000 10.00000
89 1 2 0 10.00000 20.00000 20.00000
90 1 2 0 10.00000 20.00000 30.00000
91 1 2 0 10.00000 20.00000 40.00000
92 1 2 0 10.00000 20.00000 50.00000
93 1 2 0 10.00000 20.00000 60.00000
94 1 2 0 10.00000 20.00000 70.00000
95 1 2 0 10.00000 30.00000 0.00000
96 1 2 0 10.00000 30.00000 10.00000
97 1 2 0 10.00000 30.00000 20.00000
98 1 2 0 10.00000 30.00000 30.00000
99 1 2 0 10.00000 30.00000 40.00000
100 1 2 0 10.00000 30.00000 50.00000
101 1 2 0 10.00000 30.00000 60.00000
102 1 2 0 10.00000 30.00000 70.00000
103 1 2 0 10.00000 40.00000 0.00000
104 1 2 0 10.00000 40.00000 10.00000
105 1 2 0 10.00000 40.00000 20.00000
106 1 2 0 10.00000 40.00000 30.00000
107 1 2 0 10.00000 40.00000 40.00000
108 1 2 0 10.00000 40.00000 50.00000
109 1 2 0 10.00000 40.00000 60.00000
110 1 2 0 10.00000 40.00000 70.00000
111 1 2 0 10.00000 50.00000 0.00000
112 1 2 0 10.00000 50.00000 10.00000
113 1 2 0 10.00000 50.00000 20.00000
114 1 2 0 10.00000 50.00000 30.00000
115 1 2 0 10.00000 50.00000 40.00000
116 1 2 0 10.00000 50.00000 50.00000
117 1 2 0 10.00000 50.00000 60.00000
118 1 2 0 10.00000 50.00000 70.00000
119 1 2 0 10.00000 60.00000 0.00000
120 1 2 0 10.00000 60.00000 10.00000
121 1 2 0 10.00000 60.00000 20.00000
122 1 2 0 10.00000 60.00000 30.00000
123 1 2 0 10.00000 60.00000 40.00000
124 1 2 0 10.00000 60.00000 50.00000
125 1 2 0 10.00000 60.00000 60.00000
126 1 2 0 10.00000 60.00000 70.00000
127 1 2 0 10.00000 70.00000 0.00000
128 1 2 0 10.00000 70.00000 10.00000
129 1 2 0 10.00000 70.00000 20.00000
130 1 2 0 10.00000 70.00000 30.00000
131 1 2 0 10.00000 70.00000 40.00000
132 1 2 0 10.00000 70.00000 50.00000
133 1 2 0 10.00000 70.00000 60.00000
134 1 2 0 10.00000 70.00000 70.00000
135 1 2 0 20.00000 0.00000 0.00000
136 1 2 0 20.00000 0.00000 10.00000
137 1 2 0 20.00000 0.00000 20.00000
138 1 2 0 20.00000 0.00000 30.00000
139 1 2 0 20.00000 0.00000 40.00000
140 1 2 0 20.00000 0.00000 50.00000
141 1 2 0 20.00000 0.00000 60.00000
142 1 2 0 20.00000 0.00000 70.00000
143 1 2 0 20.00000 10.00000 0.00000
144 1 2 0 20.00000 10.00000 10.00000
145 1 2 0 20.00000 10.00000 20.00000
146 1 2 0 20.00000 10.00000 30.00000
147 1 2 0 20.00000 10.00000 40.00000
148 1 2 0 20.00000 10.00000 50.00000
149 1 2 0 20.00000 10.00000 60.00000
150 1 2 0 20.00000 10.00000 70.00000
151 1 2 0 20.00000 20.00000 0.00000
152 1 2 0 20.00000 20.00000 10.00000
153 1 2 0 20.00000 20.00000 20.00000
154 1 2 0 20.00000 20.00000 30.00000
155 1 2 0 20.00000 20.00000 40.00000
156 1 2 0 20.00000 20.00000 50.00000
157 1 2 0 20.00000 20.00000 60.00000
158 1 2 0 20.00000 20.00000 70.00000
159 1 2 0 20.00000 30.00000 0.00000
160 1 2 0 20.00000 30.00000 10.00000
161 1 2 0 20.00000 30.00000 20.00000
162 1 2 0 20.00000 30.00000 30.00000
163 1 2 0 20.00000 30.00000 40.00000
164 1 2 0 20.00000 30.00000 50.00000
165 1 2 0 20.00000 30.00000 60.00000
166 1 2 0 20.00000 30.00000 70.00000
167 1 2 0 20.00000 40.00000 0.00000
168 1 2 0 20.00000 40.00000 10.00000
169 1 2 0 20.00000 40.00000 20.00000
170 1 2 0 20.00000 40.00000 30.00000
171 1 2 0 20.00000 40.00000 40.00000
172 1 2 0 20.00000 40.00000 50.00000
173 1 2 0 20.00000 40.00000 60.00000
174 1 2 0 20.00000 40.00000 70.00000
175 1 2 0 20.00000 50.00000 0.00000
176 1 2 0 20.00000 50.00000 10.00000
177 1 2 0 20.00000 50.00000 20.00000
178 1 2 0 20.00000 50.00000 30.00000
179 1 2 0 20.00000 50.00000 40.00000
180 1 2 0 20.00000 50.00000 50.00000
181 1 2 0 20.00000 50.00000 60.00000
182 1 2 0 20.00000 50.00000 70.00000
183 1 2 0 20.00000 60.00000 0.00000
184 1 2 0 20.00000 60.00000 10.00000
185 1 2 0 20.00000 60.00000 20.00000
186 1 2 0 20.00000 60.00000 30.00000
187 1 2 0 20.00000 60.00000 40.00000
188 1 2 0 20.00000 60.00000 50.00000
189 1 2 0 20.00000 60.00000 60.00000
190 1 2 0 20.00000 60.00000 70.00000
191 1 2 0 20.00000 70.00000 0.00000
192 1 2 0 20.00000 70.00000 10.00000
193 1 2 0 20.00000 70.00000 20.00000
194 1 2 0 20.00000 70.00000 30.00000
195 1 2 0 20.00000 70.00000 40.00000
196 1 2 0 20.00000 70.00000 50.00000
197 1 2 0 20.00000 70.00000 60.00000
198 1 2 0 20.00000 70.00000 70.00000
199 1 2 0 30.00000 0.00000 0.00000
200 1 2 0 30.00000 0.00000 10.00000
201 1 2 0 30.00000 0.00000 20.00000
202 1 2 0 30.00000 0.00000 30.00000
203 1 2 0 30.00000 0.00000 40.00000
204 1 2 0 30.00000 0.00000 50.00000
205 1 2 0 30.00000 0.00000 60.00000
206 1 2 0 30.00000 0.00000 70.00000
207 1 2 0 30.00000 10.00000 0.00000
208 1 2 0 30.00000 10.00000 10.00000
209 1 2 0 30.00000 10.00000 20.00000
210 1 2 0 30.00000 10.00000 30.00000
211 1 2 0 30.00000 10.00000 40.00000
212 1 2 0 30.00000 10.00000 50.00000
213 1 2 0 30.00000 10.00000 60.00000
214 1 2 0 30.00000 10.00000 70.00000
215 1 2 0 30.00000 20.00000 0.00000
216 1 2 0 30.00000 20.00000 10.00000
217 1 2 0 30.00000 20.00000 20.00000
218 1 2 0 30.00000 20.00000 30.00000
219 1 2 0 30.00000 20.00000 40.00000
220 1 2 0 30.00000 20.00000 50.00000
221 1 2 0 30.00000 20.00000 60.00000
222 1 2 0 30.00000 20.00000 70.00000
223 1 2 0 30.00000 30.00000 0.00000
224 1 2 0 30.00000 30.00000 10.00000
225 1 2 0 30.00000 30.00000 20.00000
226 1 2 0 30.00000 30.00000 30.00000
227 1 2 0 30.00000 30.00000 40.00000
228 1 2 0 30.00000 30.00000 50.00000
229 1 2 0 30.00000 30.00000 60.00000
230 1 2 0 30.00000 30.00000 70.00000
231 1 2 0 30.00000 40.00000 0.00000
232 1 2 0 30.00000 40.00000 10.00000
233 1 2 0 30.00000 40.00000 20.00000
234 1 2 0 30.00000 40.00000 30.00000
235 1 2 0 30.00000 40.00000 40.00000
236 1 2 0 30.00000 40.00000 50.00000
237 1 2 0 30.00000 40.00000 60.00000
238 1 2 0 30.00000 40.00000 70.00000
239 1 2 0 30.00000 50.00000 0.00000
240 1 2 0 30.00000 50.00000 10.00000
241 1 2 0 30.00000 50.00000 20.00000
242 1 2 0 30.00000 50.00000 30.00000
243 1 2 0 30.00000 50.00000 40.00000
244 1 2 0 30.00000 50.00000 50.00000
245 1 2 0 30.00000 50.00000 60.00000
246 1 2 0 30.00000 50.00000 70.00000
247 1 2 0 30.00000 60.00000 0.00000
248 1 2 0 30.00000 60.00000 10.00000
249 1 2 0 30.00000 60.00000 20.00000
250 1 2 0 30.00000 60.00000 30.00000
251 1 2 0 30.00000 60.00000 40.00000
252 1 2 0 30.00000 60.00000 50.00000
253 1 2 0 30.00000 60.00000 60.00000
254 1 2 0 30.00000 60.00000 70.00000
255 1 2 0 30.00000 70.00000 0.00000
256 1 2 0 30.00000 70.00000 10.00000
257 1 2 0 30.00000 70.00000 20.00000
258 1 2 0 30.00000 70.00000 30.00000
259 1 2 0 30.00000 70.00000 40.00000
260 1 2 0 30.00000 70.00000 50.00000
261 1 2 0 30.00000 70.00000 60.00000
262 1 2 0 30.00000 70.00000 70.00000
263 1 2 0 40.00000 0.00000 0.00000
264 1 2 0 40.00000 0.00000 10.00000
265 1 2 0 40.00000 0.00000 20.00000
266 1 2 0 40.00000 0.00000 30.00000
267 1 2 0 40.00000 0.00000 40.00000
268 1 2 0 40.00000 0.00000 50.00000
269 1 2 0 40.00000 0.00000 60.00000
270 1 2 0 40.00000 0.00000 70.00000
271 1 2 0 40.00000 10.00000 0.00000
272 1 2 0 40.00000 10.00000 10.00000
273 1 2 0 40.00000 10.00000 20.00000
274 1 2 0 40.00000 10.00000 30.00000
275 1 2 0 40.00000 10.00000 40.00000
276 1 2 0 40.00000 10.00000 50.00000
277 1 2 0 40.00000 10.00000 60.00000
278 1 2 0 40.00000 10.00000 70.00000
279 1 2 0 40.00000 20.00000 0.00000
280 1 2 0 40.00000 20.00000 10.00000
281 1 2 0 40.00000 20.00000 20.00000
282 1 2 0 40.00000 20.00000 30.00000
283 1 2 0 40.00000 20.00000 40.00000
284 1 2 0 40.00000 20.00000 50.00000
285 1 2 0 40.00000 20.00000 60.00000
286 1 2 0 40.00000 20.00000 70.00000
287 1 2 0 40.00000 30.00000 0.00000
288 1 2 0 40.00000 30.00000 10.00000
289 1 2 0 40.00000 30.00000 20.00000
290 1 2 0 40.00000 30.00000 30.00000
291 1 2 0 40.00000 30.00000 40.00000
292 1 2 0 40.00000 30.00000 50.00000
293 1 2 0 40.00000 30.00000 60.00000
294 1 2 0 40.00000 30.00000 70.00000
295 1 2 0 40.00000 40.00000 0.00000
296 1 2 0 40.00000 40.00000 10.00000
297 1 2 0 40.00000 40.00000 20.00000
298 1 2 0 40.00000 40.00000 30.00000
299 1 2 0 40.00000 40.00000 40.00000
300 1 2 0 40.00000 40.00000 50.00000
301 1 2 0 40.00000 40.00000 60.00000
302 1 2 0 40.00000 40.00000 70.00000
303 1 2 0 40.00000 50.00000 0.00000
304 1 2 0 40.00000 50.00000 10.00000
305 1 2 0 40.00000 50.00000 20.00000
306 1 2 0 40.00000 50.00000 30.00000
307 1 2 0 40.00000 50.00000 40.00000
308 1 2 0 40.00000 50.00000 50.00000
309 1 2 0 40.00000 50.00000 60.00000
310 1 2 0 40.00000 50.00000 70.00000
311 1 2 0 40.00000 60.00000 0.00000
312 1 2 0 40.00000 60.00000 10.00000
313 1 2 0 40.00000 60.00000 20.00000
314 1 2 0 40.00000 60.00000 30.00000
315 1 2 0 40.00000 60.00000 40.00000
316 1 2 0 40.00000 60.00000 50.00000
317 1 2 0 40.00000 60.00000 60.00000
318 1 2 0 40.00000 60.00000 70.00000
319 1 2 0 40.00000 70.00000 0.00000
320 1 2 0 40.00000 70.00000 10.00000
321 1 2 0 40.00000 70.00000 20.00000
322 1 2 0 40.00000 70.00000 30.00000
323 1 2 0 40.00000 70.00000 40.00000
324 1 2 0 40.00000 70.00000 50.00000
325 1 2 0 40.00000 70.00000 60.00000
326 1 2 0 40.00000 70.00000 70.00000
327 1 2 0 50.00000 0.00000 0.00000
328 1 2 0 50.00000 0.00000 10.00000
329 1 2 0 50.00000 0.00000 20.00000
330 1 2 0 50.00000 0.00000 30.00000
331 1 2 0 50.00000 0.00000 40.00000
332 1 2 0 50.00000 0.00000 50.00000
333 1 2 0 50.00000 0.00000 60.00000
334 1 2 0 50.00000 0.00000 70.00000
335 1 2 0 50.00000 10.00000 0.00000
336 1 2 0 50.00000 10.00000 10.00000
337 1 2 0 50.00000 10.00000 20.00000
338 1 2 0 50.00000 10.00000 30.00000
339 1 2 0 50.00000 10.00000 40.00000
340 1 2 0 50.00000 10.00000 50.00000
341 1 2 0 50.00000 10.00000 60.00000
342 1 2 0 50.00000 10.00000 70.00000
343 1 2 0 50.00000 20.00000 0.00000
344 1 2 0 50.00000 20.00000 10.00000
345 1 2 0 50.00000 20.00000 20.00000
346 1 2 0 50.00000 20.00000 30.00000
347 1 2 0 50.00000 20.00000 40.00000
348 1 2 0 50.00000 20.00000 50.00000
349 1 2 0 50.00000 20.00000 60.00000
350 1 2 0 50.00000 20.00000 70.00000
351 1 2 0 50.00000 30.00000 0.00000
352 1 2 0 50.00000 30.00000 10.00000
353 1 2 0 50.00000 30.00000 20.00000
354 1 2 0 50.00000 30.00000 30.00000
355 1 2 0 50.00000 30.00000 40.00000
356 1 2 0 50.00000 30.00000 50.00000
357 1 2 0 50.00000 30.00000 60.00000
358 1 2 0 50.00000 30.00000 70.00000
359 1 2 0 50.00000 40.00000 0.00000
360 1 2 0 50.00000 40.00000 10.00000
361 1 2 0 50.00000 40.00000 20.00000
362 1 2 0 50.00000 40.00000 30.00000
363 1 2 0 50.00000 40.00000 40.00000
364 1 2 0 50.00000 40.00000 50.00000
365 1 2 0 50.00000 40.00000 60.00000
366 1 2 0 50.00000 40.00000 70.00000
367 1 2 0 50.00000 50.00000 0.00000
368 1 2 0 50.00000 50.00000 10.00000
369 1 2 0 50.00000 50.00000 20.00000
370 1 2 0 50.00000 50.00000 30.00000
371 1 2 0 50.00000 50.00000 40.00000
372 1 2 0 50.00000 50.00000 50.00000
373 1 2 0 50.00000 50.00000 60.00000
374 1 2 0 50.00000 50.00000 70.00000
375 1 2 0 50.00000 60.00000 0.00000
376 1 2 0 50.00000 60.00000 10.00000
377 1 2 0 50.00000 60.00000 20.00000
378 1 2 0 50.00000 60.00000 30.00000
379 1 2 0 50.00000 60.00000 40.00000
380 1 2 0 50.00000 60.00000 50.00000
381 1 2 0 50.00000 60.00000 60.00000
382 1 2 0 50.00000 60.00000 70.00000
383 1 2 0 50.00000 70.00000 0.00000
384 1 2 0 50.00000 70.00000 10.00000
385 1 2 0 50.00000 70.00000 20.00000
386 1 2 0 50.00000 70.00000 30.00000
387 1 2 0 50.00000 70.00000 40.00000
388 1 2 0 50.00000 70.00000 50.00000
389 1 2 0 50.00000 70.00000 60.00000
390 1 2 0 50.00000 70.00000 70.00000
391 1 2 0 60.00000 0.00000 0.00000
392 1 2 0 60.00000 0.00000 10.00000
393 1 2 0 60.00000 0.00000 20.00000
394 1 2 0 60.00000 0.00000 30.00000
395 1 2 0 60.00000 0.00000 40.00000
396 1 2 0 60.00000 0.00000 50.00000
397 1 2 0 60.00000 0.00000 60.00000
398 1 2 0 60.00000 0.00000 70.00000
399 1 2 0 60.00000 10.00000 0.00000
400 1 2 0 60.00000 10.00000 10.00000
401 1 2 0 60.00000 10.00000 20.00000
402 1 2 0 60.00000 10.00000 30.00000
403 1 2 0 60.00000 10.00000 40.00000
404 1 2 0 60.00000 10.00000 50.00000
405 1 2 0 60.00000 10.00000 60.00000
406 1 2 0 60.00000 10.00000 70.00000
407 1 2 0 60.00000 20.00000 0.00000
408 1 2 0 60.00000 20.00000 10.00000
409 1 2 0 60.00000 20.00000 20.00000
410 1 2 0 60.00000 20.00000 30.00000
411 1 2 0 60.00000 20.00000 40.00000
412 1 2 0 60.00000 20.00000 50.00000
413 1 2 0 60.00000 20.00000 60.00000
414 1 2 0 60.00000 20.00000 70.00000
415 1 2 0 60.00000 30.00000 0.00000
416 1 2 0 60.00000 30.00000 10.00000
417 1 2 0 60.00000 30.00000 20.00000
418 1 2 0 60.00000 30.00000 30.00000
419 1 2 0 60.00000 30.00000 40.00000
420 1 2 0 60.00000 30.00000 50.00000
421 1 2 0 60.00000 30.00000 60.00000
422 1 2 0 60.00000 30.00000 70.00000
423 1 2 0 60.00000 40.00000 0.00000
424 1 2 0 60.00000 40.00000 10.00000
425 1 2 0 60.00000 40.00000 20.00000
426 1 2 0 60.00000 40.00000 30.00000
427 1 2 0 60.00000 40.00000 40.00000
428 1 2 0 60.00000 40.00000 50.00000
429 1 2 0 60.00000 40.00000 60.00000
430 1 2 0 60.00000 40.00000 70.00000
431 1 2 0 60.00000 50.00000 0.00000
432 1 2 0 60.00000 50.00000 10.00000
433 1 2 0 60.00000 50.00000 20.00000
434 1 2 0 60.00000 50.00000 30.00000
435 1 2 0 60.00000 50.00000 40.00000
436 1 2 0 60.00000 50.00000 50.00000
437 1 2 0 60.00000 50.00000 60.00000
438 1 2 0 60.00000 50.00000 70.00000
439 1 2 0 60.00000 60.00000 0.00000
440 1 2 0 60.00000 60.00000 10.00000
441 1 2 0 60.00000 60.00000 20.00000
442 1 2 0 60.00000 60.00000 30.00000
443 1 2 0 60.00000 60.00000 40.00000
444 1 2 0 60.00000 60.00000 50.00000
445 1 2 0 60.00000 60.00000 60.00000
446 1 2 0 60.00000 60.00000 70.00000
447 1 2 0 60.00000 70.00000 0.00000
448 1 2 0 60.00000 70.00000 10.00000
449 1 2 0 60.00000 70.00000 20.00000
450 1 2 0 60.00000 70.00000 30.00000
451 1 2 0 60.00000 70.00000 40.00000
452 1 2 0 60.00000 70.00000 50.00000
453 1 2 0 60.00000 70.00000 60.00000
454 1 2 0 60.00000 70.00000 70.00000
455 1 2 0 70.00000 0.00000 0.00000
456 1 2 0 70.00000 0.00000 10.00000
457 1 2 0 70.00000 0.00000 20.00000
458 1 2 0 70.00000 0.00000 30.00000
459 1 2 0 70.00000 0.00000 40.00000
460 1 2 0 70.00000 0.00000 50.00000
461 1 2 0 70.00000 0.00000 60.00000
462 1 2 0 70.00000 0.00000 70.00000
463 1 2 0 70.00000 10.00000 0.00000
464 1 2 0 70.00000 10.00000 10.00000
465 1 2 0 70.00000 10.00000 20.00000
466 1 2 0 70.00000 10.00000 30.00000
467 1 2 0 70.00000 10.00000 40.00000
468 1 2 0 70.00000 10.00000 50.00000
469 1 2 0 70.00000 10.00000 60.00000
470 1 2 0 70.00000 10.00000 70.00000
471 1 2 0 70.00000 20.00000 0.00000
472 1 2 0 70.00000 20.00000 10.00000
473 1 2 0 70.00000 20.00000 20.00000
474 1 2 0 70.00000 20.00000 30.00000
475 1 2 0 70.00000 20.00000 40.00000
476 1 2 0 70.00000 20.00000 50.00000
477 1 2 0 70.00000 20.00000 60.00000
478 1 2 0 70.00000 20.00000 70.00000
479 1 2 0 70.00000 30.00000 0.00000
480 1 2 0 70.00000 30.00000 10.00000
481 1 2 0 70.00000 30.00000 20.00000
482 1 2 0 70.00000 30.00000 30.00000
483 1 2 0 70.00000 30.00000 40.00000
484 1 2 0 70.00000 30.00000 50.00000
485 1 2 0 70.00000 30.00000 60.00000
486 1 2 0 70.00000 30.00000 70.00000
487 1 2 0 70.00000 40.00000 0.00000
488 1 2 0 70.00000 40.00000 10.00000
489 1 2 0 70.00000 40.00000 20.00000
490 1 2 0 70.00000 40.00000 30.00000
491 1 2 0 70.00000 40.00000 40.00000
492 1 2 0 70.00000 40.00000 50.00000
493 1 2 0 70.00000 40.00000 60.00000
494 1 2 0 70.00000 40.00000 70.00000
495 1 2 0 70.00000 50.00000 0.00000
496 1 2 0 70.00000 50.00000 10.00000
497 1 2 0 70.00000 50.00000 20.00000
498 1 2 0 70.00000 50.00000 30.00000
499 1 2 0 70.00000 50.00000 40.00000
500 1 2 0 70.00000 50.00000 50.00000
501 1 2 0 70.00000 50.00000 60.00000
502 1 2 0 70.00000 50.00000 70.00000
503 1 2 0 70.00000 60.00000 0.00000
504 1 2 0 70.00000 60.00000 10.00000
505 1 2 0 70.00000 60.00000 20.00000
506 1 2 0 70.00000 60.00000 30.00000
507 1 2 0 70.00000 60.00000 40.00000
508 1 2 0 70.00000 60.00000 50.00000
509 1 2 0 70.00000 60.00000 60.00000
510 1 2 0 70.00000 60.00000 70.00000
511 1 2 0 70.00000 70.00000 0.00000
512 1 2 0 70.00000 70.00000 10.00000
513 1 2 0 70.00000 70.00000 20.00000
514 1 2 0 70.00000 70.00000 30.00000
515 1 2 0 70.00000 70.00000 40.00000
516 1 2 0 70.00000 70.00000 50.00000
517 1 2 0 70.00000 70.00000 60.00000
518 1 2 0 70.00000 70.00000 70.00000
519 1 1 0 3.33333 0.00000 10.00000
520 1 1 0 3.33333 0.00000 20.00000
521 1 1 0 3.33333 0.00000 30.00000
522 1 1 0 3.33333 0.00000 40.00000
523 1 1 0 3.33333 0.00000 50.00000
524 1 1 0 3.33333 0.00000 60.00000
525 1 1 0 3.33333 0.00000 70.00000
526 1 1 0 3.33333 10.00000 0.00000
527 1 1 0 3.33333 10.00000 10.00000
528 1 1 0 3.33333 10.00000 20.00000
529 1 1 0 3.33333 10.00000 30.00000
530 1 1 0 3.33333 10.00000 40.00000
531 1 1 0 3.33333 10.00000 50.00000
532 1 1 0 3.33333 10.00000 60.00000
533 1 1 0 3.33333 10.00000 70.00000
534 1 1 0 3.33333 20.00000 0.00000
535 1 1 0 3.33333 20.00000 10.00000
536 1 1 0 3.33333 20.00000 20.00000
537 1 1 0 3.33333 20.00000 30.00000
538 1 1 0 3.33333 20.00000 40.00000
539 1 1 0 3.33333 20.00000 50.00000
540 1 1 0 3.33333 20.00000 60.00000
541 1 1 0 3.33333 20.00000 70.00000
542 1 1 0 3.33333 30.00000 0.00000
543 1 1 0 3.33333 30.00000 10.00000
544 1 1 0 3.33333 30.00000 20.00000
545 1 1 0 3.33333 30.00000 30.00000
546 1 1 0 3.33333 30.00000 40.00000
547 1 1 0 3.33333 30.00000 50.00000
548 1 1 0 3.33333 30.00000 60.00000
549 1 1 0 3.33333 30.00000 70.00000
550 1 1 0 3.33333 40.00000 0.00000
551 1 1 0 3.33333 40.00000 10.00000
552 1 1 0 3.33333 40.00000 20.00000
553 1 1 0 3.33333 40.00000 30.00000
554 1 1 0 3.33333 40.00000 40.00000
555 1 1 0 3.33333 40.00000 50.00000
556 1 1 0 3.33333 40.00000 60.00000
557 1 1 0 3.33333 40.00000 70.00000
558 1 1 0 3.33333 50.00000 0.00000
559 1 1 0 3.33333 50.00000 10.00000
560 1 1 0 3.33333 50.00000 20.00000
561 1 1 0 3.33333 50.00000 30.00000
562 1 1 0 3.33333 50.00000 40.00000
563 1 1 0 3.33333 50.00000 50.00000
564 1 1 0 3.33333 50.00000 60.00000
565 1 1 0 3.33333 50.00000 70.00000
566 1 1 0 3.33333 60.00000 0.00000
567 1 1 0 3.33333 60.00000 10.00000
568 1 1 0 3.33333 60.00000 20.00000
569 1 1 0 3.33333 60.00000 30.00000
570 1 1 0 3.33333 60.00000 40.00000
571 1 1 0 3.33333 60.00000 50.00000
572 1 1 0 3.33333 60.00000 60.00000
573 1 1 0 3.33333 60.00000 70.00000
574 1 1 0 3.33333 70.00000 0.00000
575 1 1 0 3.33333 70.00000 10.00000
576 1 1 0 3.33333 70.00000 20.00000
577 1 1 0 3.33333 70.00000 30.00000
578 1 1 0 3.33333 70.00000 40.00000
579 1 1 0 3.33333 70.00000 50.00000
580 1 1 0 3.33333 70.00000 60.00000
581 1 1 0 3.33333 70.00000 70.00000
582 1 1 0 13.33333 0.00000 0.00000
583 1 1 0 13.33333 0.00000 10.00000
584 1 1 0 13.33333 0.00000 20.00000
585 1 1 0 13.33333 0.00000 30.00000
586 1 1 0 13.33333 0.00000 40.00000
587 1 1 0 13.33333 0.00000 50.00000
588 1 1 0 13.33333 0.00000 60.00000
589 1 1 0 13.33333 0.00000 70.00000
590 1 1 0 13.33333 10.00000 0.00000
591 1 1 0 13.33333 10.00000 10.00000
592 1 1 0 13.33333 10.00000 20.00000
593 1 1 0 13.33333 10.00000 30.00000
594 1 1 0 13.33333 10.00000 40.00000
595 1 1 0 13.33333 10.00000 50.00000
596 1 1 0 13.33333 10.00000 60.00000
597 1 1 0 13.33333 10.00000 70.00000
598 1 1 0 13.33333 20.00000 0.00000
599 1 1 0 13.33333 20.00000 10.00000
600 1 1 0 13.33333 20.00000 20.00000
601 1 1 0 13.33333 20.00000 30.00000
602 1 1 0 13.33333 20.00000 40.00000
603 1 1 0 13.33333 20.00000 50.00000
604 1 1 0 13.33333 20.00000 60.00000
605 1 1 0 13.33333 20.00000 70.00000
606 1 1 0 13.33333 30.00000 0.00000
607 1 1 0 13.33333 30.00000 10.00000
608 1 1 0 13.33333 30.00000 20.00000
609 1 1 0 13.33333 30.00000 30.00000
610 1 1 0 13.33333 30.00000 40.00000
611 1 1 0 13.33333 30.00000 50.00000
612 1 1 0 13.33333 30.00000 60.00000
613 1 1 0 13.33333 30.00000 70.00000
614 1 1 0 13.33333 40.00000 0.00000
615 1 1 0 13.33333 40.00000 10.00000
616 1 1 0 13.33333 40.00000 20.00000
617 1 1 0 13.33333 40.00000 30.00000
618 1 1 0 13.33333 40.00000 40.00000
619 1 1 0 13.33333 40.00000 50.00000
620 1 1 0 13.33333 40.00000 60.00000
621 1 1 0 13.33333 40.00000 70.00000
622 1 1 0 13.33333 50.00000 0.00000
623 1 1 0 13.33333 50.00000 10.00000
624 1 1 0 13.33333 50.00000 20.00000
625 1 1 0 13.33333 50.00000 30.00000
626 1 1 0 13.33333 50.00000 40.00000
627 1 1 0 13.33333 50.00000 50.00000
628 1 1 0 13.33333 50.00000 60.00000
629 1 1 0 13.33333 50.00000 70.00000
630 1 1 0 13.33333 60.00000 0.00000
631 1 1 0 13.33333 60.00000 10.00000
632 1 1 0 13.33333 60.00000 20.00000
633 1 1 0 13.33333 60.00000 30.00000
634 1 1 0 13.33333 60.00000 40.00000
635 1 1 0 13.33333 60.00000 50.00000
636 1 1 0 13.33333 60.00000 60.00000
637 1 1 0 13.33333 60.00000 70.00000
638 1 1 0 13.33333 70.00000 0.00000
639 1 1 0 13.33333 70.00000 10.00000
640 1 1 0 13.33333 70.00000 20.00000
641 1 1 0 13.33333 70.00000 30.00000
642 1 1 0 13.33333 70.00000 40.00000
643 1 1 0 13.33333 70.00000 50.00000
644 1 1 0 13.33333 70.00000 60.00000
645 1 1 0 13.33333 70.00000 70.00000
646 1 1 0 23.33333 0.00000 0.00000
647 1 1 0 23.33333 0.00000 10.00000
648 1 1 0 23.33333 0.00000 20.00000
649 1 1 0 23.33333 0.00000 30.00000
650 1 1 0 23.33333 0.00000 40.00000
651 1 1 0 23.33333 0.00000 50.00000
652 1 1 0 23.33333 0.00000 60.00000
653 1 1 0 23.33333 0.00000 70.00000
654 1 1 0 23.33333 10.00000 0.00000
655 1 1 0 23.33333 10.00000 10.00000
656 1 1 0 23.33333 10.00000 20.00000
657 1 1 0 23.33333 10.00000 30.00000
658 1 1 0 23.33333 10.00000 40.00000
659 1 1 0 23.33333 10.00000 50.00000
660 1 1 0 23.33333 10.00000 60.00000
661 1 1 0 23.33333 10.00000 70.00000
662 1 1 0 23.33333 20.00000 0.00000
663 1 1 0 23.33333 20.00000 10.00000
664 1 1 0 23.33333 20.00000 20.00000
665 1 1 0 23.33333 20.00000 30.00000
666 1 1 0 23.33333 20.00000 40.00000
667 1 1 0 23.33333 20.00000 50.00000
668 1 1 0 23.33333 20.00000 60.00000
669 1 1 0 23.33333 20.00000 70.00000
670 1 1 0 23.33333 30.00000 0.00000
671 1 1 0 23.33333 30.00000 10.00000
672 1 1 0 23.33333 30.00000 20.00000
673 1 1 0 23.33333 30.00000 30.00000
674 1 1 0 23.33333 30.00000 40.00000
675 1 1 0 23.33333 30.00000 50.00000
676 1 1 0 23.33333 30.00000 60.00000
677 1 1 0 23.33333 30.00000 70.00000
678 1 1 0 23.33333 40.00000 0.00000
679 1 1 0 23.33333 40.00000 10.00000
680 1 1 0 23.33333 40.00000 20.00000
681 1 1 0 23.33333 40.00000 30.00000
682 1 1 0 23.33333 40.00000 40.00000
683 1 1 0 23.33333 40.00000 50.00000
684 1 1 0 23.33333 40.00000 60.00000
685 1 1 0 23.33333 40.00000 70.00000
686 1 1 0 23.33333 50.00000 0.00000
687 1 1 0 23.33333 50.00000 10.00000
688 1 1 0 23.33333 50.00000 20.00000
689 1 1 0 23.33333 50.00000 30.00000
690 1 1 0 23.33333 50.00000 40.00000
691 1 1 0 23.33333 50.00000 50.00000
692 1 1 0 23.33333 50.00000 60.00000
693 1 1 0 23.33333 50.00000 70.00000
694 1 1 0 23.33333 60.00000 0.00000
695 1 1 0 23.33333 60.00000 10.00000
696 1 1 0 23.33333 60.00000 20.00000
697 1 1 0 23.33333 60.00000 30.00000
698 1 1 0 23.33333 60.00000 40.00000
699 1 1 0 23.33333 60.00000 50.00000
700 1 1 0 23.33333 60.00000 60.00000
701 1 1 0 23.33333 60.00000 70.00000
702 1 1 0 23.33333 70.00000 0.00000
703 1 1 0 23.33333 70.00000 10.00000
704 1 1 0 23.33333 70.00000 20.00000
705 1 1 0 23.33333 70.00000 30.00000
706 1 1 0 23.33333 70.00000 40.00000
707 1 1 0 23.33333 70.00000 50.00000
708 1 1 0 23.33333 70.00000 60.00000
709 1 1 0 23.33333 70.00000 70.00000
710 1 1 0 33.33333 0.00000 0.00000
711 1 1 0 33.33333 0.00000 10.00000
712 1 1 0 33.33333 0.00000 20.00000
713 1 1 0 33.33333 0.00000 30.00000
714 1 1 0 33.33333 0.00000 40.00000
715 1 1 0 33.33333 0.00000 50.00000
716 1 1 0 33.33333 0.00000 60.00000
717 1 1 0 33.33333 0.00000 70.00000
718 1 1 0 33.33333 10.00000 0.00000
719 1 1 0 33.33333 10.00000 10.00000
720 1 1 0 33.33333 10.00000 20.00000
721 1 1 0 33.33333 10.00000 30.00000
722 1 1 0 33.33333 10.00000 40.00000
723 1 1 0 33.33333 10.00000 50.00000
724 1 1 0 33.33333 10.00000 60.00000
725 1 1 0 33.33333 10.00000 70.00000
726 1 1 0 33.33333 20.00000 0.00000
727 1 1 0 33.33333 20.00000 10.00000
728 1 1 0 33.33333 20.00000 20.00000
729 1 1 0 33.33333 20.00000 30.00000
730 1 1 0 33.33333 20.00000 40.00000
731 1 1 0 33.33333 20.00000 50.00000
732 1 1 0 33.33333 20.00000 60.00000
733 1 1 0 33.33333 20.00000 70.00000
734 1 1 0 33.33333 30.00000 0.00000
735 1 1 0 33.33333 30.00000 10.00000
736 1 1 0 33.33333 30.00000 20.00000
737 1 1 0 33.33333 30.00000 30.00000
738 1 1 0 33.33333 30.00000 40.00000
739 1 1 0 33.33333 30.00000 50.00000
740 1 1 0 33.33333 30.00000 60.00000
741 1 1 0 33.33333 30.00000 70.00000
742 1 1 0 33.33333 40.00000 0.00000
743 1 1 0 33.33333 40.00000 10.00000
744 1 1 0 33.33333 40.00000 20.00000
745 1 1 0 33.33333 40.00000 30.00000
746 1 1 0 33.33333 40.00000 40.00000
747 1 1 0 33.33333 40.00000 50.00000
748 1 1 0 33.33333 40.00000 60.00000
749 1 1 0 33.33333 40.00000 70.00000
750 1 1 0 33.33333 50.00000 0.00000
751 1 1 0 33.33333 50.00000 10.00000
752 1 1 0 33.33333 50.00000 20.00000
753 1 1 0 33.33333 50.00000 30.00000
754 1 1 0 33.33333 50.00000 40.00000
755 1 1 0 33.33333 50.00000 50.00000
756 1 1 0 33.33333 50.00000 60.00000
757 1 1 0 33.33333 50.00000 70.00000
758 1 1 0 33.33333 60.00000 0.00000
759 1 1 0 33.33333 60.00000 10.00000
760 1 1 0 33.33333 60.00000 20.00000
761 1 1 0 33.33333 60.00000 30.00000
762 1 1 0 33.33333 60.00000 40.00000
763 1 1 0 33.33333 60.00000 50.00000
764 1 1 0 33.33333 60.00000 60.00000
765 1 1 0 33.33333 60.00000 70.00000
766 1 1 0 33.33333 70.00000 0.00000
767 1 1 0 33.33333 70.00000 10.00000
768 1 1 0 33.33333 70.00000 20.00000
769 1 1 0 33.33333 70.00000 30.00000
770 1 1 0 33.33333 70.00000 40.00000
771 1 1 0 33.33333 70.00000 50.00000
772 1 1 0 33.33333 70.00000 60.00000
773 1 1 0 33.33333 70.00000 70.00000
774 1 1 0 43.33333 0.00000 0.00000
775 1 1 0 43.33333 0.00000 10.00000
776 1 1 0 43.33333 0.00000 20.00000
777 1 1 0 43.33333 0.00000 30.00000
778 1 1 0 43.33333 0.00000 40.00000
779 1 1 0 43.33333 0.00000 50.00000
780 1 1 0 43.33333 0.00000 60.00000
781 1 1 0 43.33333 0.00000 70.00000
782 1 1 0 43.33333 10.00000 0.00000
783 1 1 0 43.33333 10.00000 10.00000
784 1 1 0 43.33333 10.00000 20.00000
785 1 1 0 43.33333 10.00000 30.00000
786 1 1 0 43.33333 10.00000 40.00000
787 1 1 0 43.33333 10.00000 50.00000
788 1 1 0 43.33333 10.00000 60.00000
789 1 1 0 43.33333 10.00000 70.00000
790 1 1 0 43.33333 20.00000 0.00000
791 1 1 0 43.33333 20.00000 10.00000
792 1 1 0 43.33333 20.00000 20.00000
793 1 1 0 43.33333 20.00000 30.00000
794 1 1 0 43.33333 20.00000 40.00000
795 1 1 0 43.33333 20.00000 50.00000
796 1 1 0 43.33333 20.00000 60.00000
797 1 1 0 43.33333 20.00000 70.00000
798 1 1 0 43.33333 30.00000 0.00000
799 1 1 0 43.33333 30.00000 10.00000
800 1 1 0 43.33333 30.00000 20.00000
801 1 1 0 43.33333 30.00000 30.00000
802 1 1 0 43.33333 30.00000 40.00000
803 1 1 0 43.33333 30.00000 50.00000
804 1 1 0 43.33333 30.00000 60.00000
805 1 1 0 43.33333 30.00000 70.00000
806 1 1 0 43.33333 40.00000 0.00000
807 1 1 0 43.33333 40.00000 10.00000
808 1 1 0 43.33333 40.00000 20.00000
809 1 1 0 43.33333 40.00000 30.00000
810 1 1 0 43.33333 40.00000 40.00000
811 1 1 0 43.33333 40.00000 50.00000
812 1 1 0 43.33333 40.00000 60.00000
813 1 1 0 43.33333 40.00000 70.00000
814 1 1 0 43.33333 50.00000 0.00000
815 1 1 0 43.33333 50.00000 10.00000
816 1 1 0 43.33333 50.00000 20.00000
817 1 1 0 43.33333 50.00000 30.00000
818 1 1 0 43.33333 50.00000 40.00000