LAMMPS (11 Jun 2012)
# Initialization
atom_style      full
units           real
variable        T equal 300
variable        dt equal 1.0
variable        seed equal 123459
variable        radius equal 0.5
variable        sizet equal 4
variable        sizeb equal -4
variable        p equal 20000    # correlation length
variable        s equal 5        # sample interval
variable        d equal $p*$s    # dump interval
variable        d equal 20000*$s    variable        d equal 20000*5    
# convert from LAMMPS real units to SI
variable        kB equal 1.3806504e-23    # [J/K] Boltzmann
variable        kCal2J equal 4186.0/6.02214e23
variable        A2m equal 1.0e-10
variable        fs2s equal 1.0e-15
variable        convert equal ${kCal2J}*${kCal2J}/${fs2s}/${A2m}
variable        convert equal 6.9510174124148567155e-21*${kCal2J}/${fs2s}/${A2m}
variable        convert equal 6.9510174124148567155e-21*6.9510174124148567155e-21/${fs2s}/${A2m}
variable        convert equal 6.9510174124148567155e-21*6.9510174124148567155e-21/1.0000000000000000777e-15/${A2m}
variable        convert equal 6.9510174124148567155e-21*6.9510174124148567155e-21/1.0000000000000000777e-15/1.0000000000000000364e-10
variable        b_eq equal 10.0/3.0

# setup problem
dimension       3
boundary        p p p
neighbor        2    bin
pair_style      lj/cut 10.0
bond_style      morse
read_data       lammps.data
  9 = max bonds/atom
  orthogonal box = (0 0 0) to (80 80 80)
  2 by 2 by 2 MPI processor grid
  7168 atoms
  33696 bonds
  10 = max # of 1-2 neighbors
  86 = max # of 1-3 neighbors
  824 = max # of 1-4 neighbors
  164 = max # of special neighbors
pair_coeff      1 1 0.000 3.500
pair_coeff      2 2 0.000 3.500
pair_coeff      1 2 0.105 3.500
bond_coeff      1 10 1.8 ${b_eq}
bond_coeff      1 10 1.8 3.3333333333333334814
bond_coeff      2 5 0.805 7.4536
bond_coeff      3 10 1.8 ${b_eq}
bond_coeff      3 10 1.8 3.3333333333333334814
bond_coeff      4 5 0.805 7.4536
velocity        all create $T ${seed} mom yes rot yes dist gaussian
velocity        all create 300 ${seed} mom yes rot yes dist gaussian
velocity        all create 300 123459 mom yes rot yes dist gaussian
timestep        ${dt}
timestep        1
thermo          100
dump            T1 all cfg 600000 *.cfg id type xs ys zs
dump            T2 all xyz 10000 traj.xyz
#dump_modify    1 element Cu
# −−−−−−−−−−−−− Equilibration and thermalisation −−−−−−−−−−−−−−−−
fix             NVT all nvt temp $T $T 10
fix             NVT all nvt temp 300 $T 10
fix             NVT all nvt temp 300 300 10
run             300000
Memory usage per processor = 11.5453 Mbytes
Step Temp E_pair E_mol TotEng Press 
       0          300   -906.89526 0.00012694983    5502.1446    343.62551 
     100    244.10908   -935.66696    6996.8263    11276.175    2152.6064 
     200    292.75216   -994.46762    9980.5252    15240.258    1145.0098 
     300    302.56527   -995.63755    8512.8843     13981.09    478.78493 
     400    299.66168   -974.31661    6621.5157    12049.011    846.60027 
     500    299.88406   -956.62524    5686.2963    11136.234    1178.0851 
     600    297.67876   -953.87265    5538.0515    10943.629    1186.7806 
     700    298.92395   -966.86607    6442.2601    11861.446    1210.7435 
     800    299.24269   -980.53989    7099.0489     12511.37    1144.9025 
     900    296.91551   -984.64391     6917.317    12275.817    981.47091 
    1000    302.48926   -985.23026    6746.2777    12223.266    1166.4675 
    1100    300.24355   -984.39488    6468.5903    11898.438    1223.8721 
    1200    298.89184     -984.332    6210.7889    11611.822    1132.5718 
    1300    300.51448    -990.6446    6211.5065    11640.893    1132.7975 
    1400    296.68972   -1001.2961    6549.9174    11886.942    1146.0854 
    1500    297.19014   -1008.4572    6985.3098    12325.864    1254.1671 
    1600    300.52264    -1011.315    6731.3843    12140.274    1280.2809 
    1700    296.95438   -1016.3276    6388.1057    11715.753     1215.658 
    1800    303.40379   -1020.0311    6493.0153    11954.741    1303.9159 
    1900    297.21411   -1027.5065    6444.2642    11766.281    1251.6712 
    2000    301.50029    -1037.498    6528.2627    11931.856    1275.6497 
    2100     297.0154   -1045.0465    6528.7677    11828.999     1372.072 
    2200    302.41405   -1051.7353    6273.0752    11681.952    1433.3922 
    2300    300.71821   -1068.3549    6330.3224    11686.351    1465.3488 
    2400    292.61381   -1080.4945    6403.5663    11574.317    1438.7534 
    2500    301.25789   -1094.1165    6468.5599    11810.356    1502.6815 
    2600     301.6646   -1108.9963    6298.7765    11634.382    1412.0063 
    2700    300.04278   -1125.5264    6385.5532     11669.98    1545.0175 
    2800    296.42936   -1142.7987    6358.5945    11548.554    1571.1474 
    2900    301.82406   -1156.6134    6084.0196    11375.414    1613.5745 
    3000    300.15406   -1164.0938    6006.8974    11255.135    1577.0421 
    3100     299.7489   -1151.3322    6349.7666     11602.11    1677.1112 
    3200    300.70132     -1157.45    6400.2325    11666.805    1645.4809 
    3300    296.06871   -1147.8004    6154.1571     11331.41    1582.8607 
    3400    300.66111     -1136.89    6299.7019    11585.975    1641.7044 
    3500    299.91112   -1149.0905    6380.2432    11638.294    1619.6823 
    3600    300.41537   -1161.0161    6443.9409    11700.838    1568.1532 
    3700     304.7792   -1164.0167    6444.0454    11791.169    1628.5071 
    3800    299.40653   -1175.1113    6212.0919    11433.342    1614.3339 
    3900    300.10575   -1167.2984    6294.8962    11538.897    1668.2835 
    4000    299.55437   -1162.5951    6320.0188    11556.943    1737.2111 
    4100    301.44792   -1166.3167    6226.6283    11500.284    1700.3762 
    4200    302.63721   -1152.7547    6321.3435    11633.968    1672.8225 
    4300    295.21957   -1148.3278     6316.295     11474.88    1649.2497 
    4400    302.22877   -1137.2803    6245.2722    11564.646    1624.3895 
    4500    293.63551   -1124.5014    6319.4954    11468.066    1629.5604 
    4600    306.05171   -1112.0043      6354.47    11780.791    1525.2863 
    4700    298.02944    -1098.489    6605.3684    11873.821    1590.1952 
    4800    302.05278   -1090.0475    6529.0244    11891.871    1557.6442 
    4900    300.17643   -1078.5211    6385.6855    11719.973    1613.2346 
    5000    294.52521   -1071.6607    6287.9294    11508.348    1616.7436 
    5100    302.70752   -1067.6252    6389.2569    11788.513    1549.9012 
    5200    298.43409   -1065.2979    6563.2535    11873.542    1571.4731 
    5300    303.68334   -1063.7632    6630.6137    12054.579    1644.3385 
    5400    297.39365   -1065.7069    6552.8643    11840.516    1616.7156 
    5500    299.35826   -1066.0365    6439.1334    11768.427    1526.8076 
    5600    297.27153   -1071.0364     6461.737    11741.451    1550.3966 
    5700    304.65836   -1072.4956    6483.4658    11919.529    1518.7525 
    5800    298.81418   -1078.4706    6484.6482    11789.884    1490.1167 
    5900    298.70623   -1087.4371    6400.1048    11694.068    1555.4541 
    6000    302.28411   -1095.0238     6417.154    11779.966    1630.0604 
    6100    297.61688   -1100.9253    6429.5681    11686.771    1538.9938 
    6200    300.01739   -1106.9406    6312.6165    11615.087    1618.4531 
    6300    300.64603   -1112.8785    6299.9709    11609.933    1657.2667 
    6400    302.08723   -1108.7071    6426.7033    11771.626    1694.0624 
    6500    300.57302   -1112.8038    6358.0999    11666.578    1704.6973 
    6600    299.63434   -1099.9632    6449.2543    11750.519    1835.2096 
    6700    306.02772   -1096.5879    6248.5989    11689.824    1771.6618 
    6800    299.17665   -1090.6765    6382.2965     11683.07    1767.7052 
    6900    302.55865   -1088.0135    6331.5941    11707.282     1836.638 
    7000    301.16514   -1089.7946     6222.675    11566.812    1826.3267 
    7100    296.36043   -1093.8007    6266.2333    11503.718    1835.9164 
    7200    300.50776   -1107.7173    6403.9727    11716.143     1833.681 
    7300    295.91567   -1105.3179    6483.0053    11699.472    1853.9773 
    7400    300.59723   -1113.2594    6316.8582    11625.397    1713.7089 
    7500    299.53349   -1117.5546    6181.2945    11462.813    1684.4554 
    7600    301.76168   -1112.4274    6360.9109    11695.159    1810.2394 
    7700    302.21774   -1103.6844    6475.0473    11827.781    1729.9434 
    7800    298.85911   -1101.7816     6418.077    11700.962    1672.8239 
    7900    297.17226   -1097.1135    6421.8214    11673.337    1830.4889 
    8000     301.6732   -1092.0978    6421.1875    11773.875    1741.3095 
    8100     299.1613   -1092.0548    6484.9767    11784.044    1639.5959 
    8200    299.77549   -1091.6471     6496.306    11808.902    1723.7531 
    8300    302.09134   -1093.3151    6445.6736    11806.076    1712.0911 
    8400    298.00149   -1094.3416    6380.5636    11652.567    1607.7814 
    8500      301.386   -1097.9777    6507.7298    11848.402    1698.1731 
    8600    294.76326   -1102.1444    6560.0084    11755.029    1612.1531 
    8700    299.32536   -1100.3079    6511.0373    11805.357    1525.4542 
    8800     299.6656   -1111.7088    6438.7665    11728.953    1542.5161 
    8900    300.03718   -1110.7165    6418.8546    11717.972    1669.8375 
    9000    297.65618   -1120.1203    6443.0326     11681.88     1706.243 
    9100    308.29464    -1124.708    6388.4632    11849.997    1751.9691 
    9200    304.61647   -1126.1207    6362.3357    11743.878    1790.4584 
    9300    298.53678    -1135.352    6437.0287    11679.457    1788.7415 
    9400    300.61327   -1142.4376    6282.9395    11562.643    1718.8773 
    9500    300.34107    -1139.614    6411.0543    11687.766    1820.2793 
    9600    297.60521    -1146.334    6324.7884    11536.333    1741.5455 
    9700    300.02178   -1129.0729    6339.1392    11619.571    1785.0475 
    9800    304.56698   -1120.4825    6343.5009    11729.625    1865.8725 
    9900    300.26882   -1144.0654    6317.7052    11588.422    1822.6311 
   10000    304.01858   -1145.5408    6400.6011    11749.951    1800.4356 
   10100    296.42618   -1158.6943    6426.3076    11600.304    1826.2798 
   10200     301.3191   -1152.4331    6506.9143    11791.702    1807.6345 
   10300     302.2078    -1161.097    6604.4534    11899.562    1858.2252 
   10400    298.77864   -1151.9244    6311.0983    11542.121    1893.9838 
   10500     300.7425    -1150.997    6199.3602    11473.265    1889.8019 
   10600    299.38094   -1151.6813    6346.7872     11590.92    1895.8018 
   10700    302.37359   -1143.7666    6439.0621    11755.043    1852.7689 
   10800      296.835   -1147.0827    6441.5275    11635.869    1844.4276 
   10900    302.70442   -1149.9196    6340.5911    11657.487    1773.0421 
   11000    299.68382   -1148.5564    6318.6739    11572.402    1825.1458 
   11100    305.51635   -1148.6201    6365.6912    11743.959    1840.6529 
   11200    306.13726   -1146.5674     6423.359    11816.944    1813.4978 
   11300    299.63538   -1151.4682    6358.3495    11608.131    1788.6738 
   11400    301.26022   -1151.3511    6384.9514    11669.563    1844.0017 
   11500    298.72265    -1143.325    6430.1476    11668.574    1750.0111 
   11600     301.8362   -1142.6852    6398.6007    11704.183    1780.4668 
   11700    300.56773   -1140.9644    6413.4306    11693.635    1816.4265 
   11800    296.10586   -1140.5746    6327.0416    11512.314    1698.1587 
   11900    300.64343    -1146.472    6410.5758    11686.889    1743.8553 
   12000    301.18366   -1153.6544    6366.1292    11646.802    1767.8614 
   12100    297.96943   -1160.4437    6371.7407    11576.957    1744.6273 
   12200    304.23717   -1156.0117    6396.4751    11740.024    1815.4522 
   12300    297.09802   -1159.6968    6307.4782    11494.825     1834.639 
   12400    301.27055   -1146.5827      6439.03     11728.63    1822.0929 
   12500    298.77141     -1143.99    6472.1601    11710.963    1825.9994 
   12600     300.7729   -1144.9722    6336.3557    11616.935    1870.5288 
   12700    301.96682   -1151.3104    6314.8534    11614.601    1884.8339 
   12800     296.2882   -1149.6989    6273.6709    11453.715     1887.521 
   12900    302.75826   -1150.3779    6264.0651    11581.653    1871.3554 
   13000    294.23972   -1152.0288    6410.3409    11544.292    1861.5221 
   13100    304.16886   -1151.8115    6398.2556    11744.545    1892.3018 
   13200    294.96597   -1151.5086    6322.5389    11472.526    1866.3414 
   13300    301.73362   -1150.5491    6316.0839     11611.61    1848.1272 
   13400     293.3439   -1154.1972    6459.4507    11572.096    1873.2515 
   13500    302.34563   -1146.6132    6345.0709    11657.608    1861.8277 
   13600    297.24307   -1151.8248     6313.923     11512.24    1771.3598 
   13700    304.81146    -1151.252    6423.1342    11783.711    1787.2706 
   13800    300.57804    -1150.934    6367.4668    11637.922    1825.1402 
   13900    295.06972   -1148.1496     6436.188     11591.75    1847.3301 
   14000    299.26855   -1150.0263    6454.3401    11697.727    1780.6057 
   14100    293.93941   -1147.2619    6497.8572     11630.16    1859.3305 
   14200    300.93883   -1147.5008     6394.421    11676.017    1797.1535 
   14300    301.32718   -1143.0697       6328.6    11622.923    1784.2412 
   14400    298.90676   -1147.5298    6534.7022    11772.857    1839.6795 
   14500    301.97596   -1146.0775     6388.802    11693.977    1760.4289 
   14600    303.87662   -1154.6842     6321.563    11658.737    1775.2981 
   14700    302.37727    -1148.076    6381.5337    11693.284    1836.5799 
   14800    295.46094    -1151.404    6450.8801    11611.546    1857.3559 
   14900    300.30501   -1151.8565    6429.2018    11692.901    1851.6882 
   15000    302.84993   -1156.8865    6337.9063    11650.944      1872.34 
   15100    292.49105   -1163.1795    6279.5929    11365.036    1860.5874 
   15200    303.50473   -1156.3061     6408.451    11736.058    1904.8109 
   15300    300.10193    -1151.736    6370.1889     11629.67    1797.1956 
   15400    299.72397   -1150.8712    6520.9053    11773.177    1801.5054 
   15500    299.52145   -1152.7102    6516.5789    11762.685    1915.7259 
   15600    298.03025   -1146.4502     6292.433    11512.942    1806.4584 
   15700    299.44122   -1144.9054    6411.6756    11663.872    1869.0892 
   15800    303.20541   -1148.2383    6513.2405     11842.52    1883.7286 
   15900    299.86973   -1149.3549    6440.0935    11696.995    1877.7136 
   16000    299.84742   -1146.3846    6362.2808    11621.676     1898.161 
   16100    294.69556   -1143.4557    6372.6742    11524.937    1802.9687 
   16200    298.50624   -1144.5258    6410.0931    11642.695    1769.5299 
   16300    302.84181   -1145.5419    6378.2254    11702.434    1821.1915 
   16400    298.15594    -1135.203    6497.0298    11731.471    1860.0472 
   16500    301.43792   -1134.4093    6341.5052    11646.855    1760.3235 
   16600    295.11455   -1134.9455    6370.2395    11539.964    1824.2117 
   16700    298.60276   -1134.0064    6541.9242    11787.108    1851.8721 
   16800    304.14152   -1128.0028    6510.1356     11879.65    1810.0991 
   16900    298.41091   -1131.5814    6423.1961    11666.706    1799.3892 
   17000    303.76692   -1133.5241    6412.2447    11768.235    1803.1045 
   17100    296.29199   -1127.8452    6537.6707    11739.649    1828.9017 
   17200     300.6709   -1129.7827    6461.4732    11755.063    1837.7808 
   17300    297.19723    -1135.748    6262.1657     11475.58    1750.5254 
   17400    302.15008     -1131.85    6420.2871     11743.41    1837.4817 
   17500    298.93803   -1140.0504    6422.7215    11669.023    1773.6139 
   17600    301.99531   -1141.9509     6430.412    11740.128    1788.3788 
   17700    300.25237   -1147.8243    6473.4681    11740.075    1798.8678 
   17800    294.81492    -1150.583    6412.2487    11559.934    1783.9775 
   17900     302.1542   -1150.2415     6361.347    11666.166    1767.0191 
   18000    300.08095   -1146.2792    6478.8512    11743.341    1875.1651 
   18100    301.08983   -1144.1844    6413.8088    11701.947    1817.5576 
   18200    299.96951   -1143.1298    6301.1712     11566.43    1810.5926 
   18300     299.0209   -1146.0419     6386.353    11628.434    1830.8357 
   18400    299.82293   -1147.9953    6446.9119    11704.173    1840.4192 
   18500    303.01747   -1149.7123    6371.5006    11695.292    1769.6032 
   18600    298.24374   -1158.5917    6405.4181    11618.346    1836.0308 
   18700    298.14324   -1156.3115    6409.0541    11622.116    1803.8758 
   18800    304.51995   -1146.6937    6452.6676    11811.576    1810.3525 
   18900    298.16997   -1151.8913    6425.8063    11643.859    1837.7185 
   19000    301.34793   -1139.9376     6301.824    11599.723     1817.186 
   19100    296.39812   -1136.2258    6537.6859    11733.551    1895.1988 
   19200    299.37291   -1145.8706    6485.5073     11735.28    1837.0694 
   19300    297.88071   -1147.8333    6429.0662    11644.997    1847.0876 
   19400    299.83538   -1142.8417    6400.9952    11663.676    1816.3815 
   19500    303.33105   -1140.6519    6392.3783    11731.929    1811.7703 
   19600    299.41864   -1139.5291    6450.8433    11707.934     1807.056 
   19700    298.95955   -1135.7582     6467.723    11718.777    1805.6299 
   19800    302.82312   -1133.3199    6471.4834    11807.515    1869.2422 
   19900    298.59535   -1135.0047     6453.435    11697.462     1886.168 
   20000    302.30254     -1134.29    6372.0624    11696.002     1842.695 
   20100     295.3634   -1138.8588    6401.2317    11572.359    1816.1928 
   20200    300.20706   -1133.4823    6420.1404    11700.121      1831.44 
   20300     302.6632    -1137.814    6388.4796      11716.6    1854.4406 
   20400    298.09419   -1143.5846    6479.2407    11703.981    1833.9078 
   20500     300.5917   -1146.7667    6438.7751    11713.689    1831.1557 
   20600    301.02552   -1145.2099    6429.4571    11715.195     1849.046 
   20700     298.9222   -1144.3105    6445.8772    11687.581    1865.7957 
   20800    301.85989   -1143.4263    6403.1043    11708.451    1837.4959 
   20900    300.83103   -1153.5028    6320.0829    11593.373    1803.6133 
   21000    297.00754   -1151.9907    6394.3019    11587.422    1840.8593 
   21100    300.59522   -1158.3843    6341.7109    11605.082    1859.4258 
   21200    299.17088   -1164.4912     6426.185    11653.021    1904.6369 
   21300    294.34216   -1153.8401    6418.0229    11552.351     1869.699 
   21400    301.24497    -1162.868    6370.6709    11643.439    1834.2355 
   21500     295.4596   -1157.1335    6328.2736    11483.181    1846.4149 
   21600    300.58945   -1155.4835    6459.4934    11725.642    1924.0792 
   21700    300.15599   -1158.0532    6523.5689    11777.888    1853.6443 
   21800    295.93916   -1157.8076    6316.5854    11481.064    1781.8683 
   21900    302.84598   -1160.5246      6374.51    11683.825    1899.5476 
   22000    300.27873   -1160.6924    6320.7714    11575.073    1795.2621 
   22100    298.17314   -1154.1685    6432.7814    11648.625    1823.4925 
   22200    302.86894   -1154.1668    6501.3453    11817.509    1835.4216 
   22300    296.24113   -1151.4962    6409.5463    11586.787    1737.5937 
   22400    300.80563   -1149.1615    6401.6703     11678.76    1800.0578 
   22500      298.148   -1141.3687    6411.5934    11639.699     1883.172 
   22600    302.30245   -1136.9025    6481.8996    11803.225    1860.7141 
   22700    301.16544   -1140.4087    6331.6484    11625.177    1822.7305 
   22800    300.56621   -1138.9819    6455.1542    11737.308    1907.8002 
   22900    299.64386   -1133.5119    6494.8082    11762.728    1773.8407 
   23000    301.53863   -1135.9015    6472.9955    11779.004    1793.6147 
   23100    297.86368    -1138.093    6347.2346    11572.542    1801.8378 
   23200    302.97965   -1142.7682    6385.3668    11715.294    1842.2308 
   23300    298.29505   -1137.2712    6475.0777    11710.423    1817.9886 
   23400    304.57605   -1139.7503    6461.7919    11828.842    1828.4232 
   23500    299.46186   -1133.3482    6394.5348     11658.73    1818.5971 
   23600    296.99498   -1134.8591    6521.0401    11731.023    1881.0282 
   23700    301.77528   -1138.0412     6386.658    11695.583    1851.1751 
   23800     299.5594   -1143.8456    6377.6219    11633.403    1850.4012 
   23900    293.06795   -1147.6635     6398.241    11511.525    1808.1966 
   24000    302.60764   -1145.5108    6488.2121    11807.449     1922.079 
   24100    299.08491   -1145.5066    6440.7698    11684.753    1833.3731 
   24200    304.53168   -1149.9151    6378.2979    11734.235    1780.5126 
   24300    297.58287   -1155.8649    6380.6689    11582.205    1819.6378 
   24400    306.50317   -1152.9646    6394.6293    11789.635    1844.5719 
   24500    299.48063   -1159.1572    6497.0565    11735.843    1841.5117 
   24600    300.51985   -1157.4915     6523.663    11786.317    1881.5013 
   24700    300.72733   -1157.5585    6252.0509     11519.07    1790.5369 
   24800    300.83172   -1159.2554    6392.0625    11659.615    1885.8979 
   24900    300.17066   -1159.6547    6380.9094     11633.94    1903.3874 
   25000     291.8049   -1149.8066    6387.9365    11472.094    1790.4534 
   25100    302.13708   -1152.6953    6404.8222    11706.822    1829.1639 
   25200    297.11141    -1155.528    6460.2617    11652.063    1891.6618 
   25300    299.96375   -1159.3678    6378.0624     11626.96    1871.9809 
   25400    299.44092   -1151.3593    6377.9827    11623.719    1853.8281 
   25500    296.43349   -1151.0296      6481.61    11663.427    1930.3716 
   25600    306.16841   -1152.8224    6369.0971    11757.093    1886.1252 
   25700    296.30814   -1146.8306    6363.7562    11547.094    1839.8458 
   25800    298.53598   -1148.3288    6431.9058     11661.34    1865.3225 
   25900    301.37624   -1146.5207    6365.8155    11657.736    1852.1112 
   26000    300.73804   -1139.9914    6356.5496    11641.365    1826.2424 
   26100    298.16059   -1142.2376     6423.612    11651.118    1849.1961 
   26200    306.78238   -1138.4221    6404.3382    11819.851    1849.1759 
   26300    299.09714   -1136.3265    6438.1146     11691.54    1741.3058 
   26400     295.2683   -1136.3462    6481.1979    11652.806    1678.9095 
   26500    304.47006   -1136.8151    6448.6871    11816.408    1766.3491 
   26600    304.89039   -1135.3641    6426.3594    11804.511     1778.596 
   26700    298.99993   -1128.7352    6487.2166    11746.156    1752.1277 
   26800    305.02356   -1129.3089    6406.9297    11793.981    1802.7287 
   26900    301.29299   -1131.3061    6365.9755    11671.332    1776.2727 
   27000    296.33973   -1125.8315    6475.7078     11680.72     1720.477 
   27100    302.48514    -1132.446    6478.5572    11808.242    1760.9388 
   27200    302.46351   -1134.8822    6409.5272    11736.314    1787.9028 
   27300    299.22641   -1140.3519    6443.1879    11695.349    1762.3632 
   27400    301.16859   -1137.4675    6489.8442    11786.381    1842.7604 
   27500    299.24577   -1147.7242    6468.9058    11714.108    1869.4447 
   27600    306.18866   -1147.9838    6401.8086    11795.076    1773.6921 
   27700    299.82762    -1145.157    6342.7165    11602.917    1759.8152 
   27800     301.4018   -1153.7564    6404.6131    11689.844    1830.8755 
   27900    297.40575   -1156.9195    6446.9957    11643.694    1822.5577 
   28000    300.72654   -1154.8897    6383.6075    11653.279    1794.2731 
   28100    295.76835   -1155.8318    6452.5297    11615.335    1899.1219 
   28200    302.24989   -1150.3764    6304.4531    11611.182    1886.6755 
   28300    303.80848   -1156.5112    6425.6971    11759.588    1898.4037 
   28400    296.92295   -1158.0615    6445.0002    11630.242    1851.1549 
   28500    305.49019   -1159.6515    6409.5796    11776.257    1868.5296 
   28600    299.98851   -1167.1411     6472.227     11713.88    1825.3248 
   28700    300.93787   -1167.4108    6429.0998    11690.765    1832.6197 
   28800     299.0356   -1162.4088    6397.2326    11623.261    1859.1481 
   28900    300.42241   -1160.4949    6347.9927    11605.562    1813.3089 
   29000    302.74924   -1155.1069    6540.2594    11852.925    1919.3247 
   29100    297.84497   -1153.2952    6291.3203    11501.026    1805.1073 
   29200    303.84197   -1158.2083    6307.1792    11640.088     1859.299 
   29300    300.08378   -1155.3409    6474.0907    11729.579    1931.3537 
   29400     297.4627   -1151.6187    6433.3089    11636.524     1864.154 
   29500    298.45486   -1155.7171    6380.9942    11601.307    1792.4118 
   29600    298.23247   -1150.3102    6431.8792    11652.848    1837.7956 
   29700    299.17849   -1149.6817    6475.4833    11717.291    1893.2129 
   29800    302.42241   -1149.2053    6381.6187    11693.204    1892.6934 
   29900    299.21746   -1144.4019    6364.5746    11612.495    1825.1219 
   30000    309.37829   -1136.2325    6478.2934    11951.453    1872.6601 
   30100    300.70938    -1141.924    6504.0182    11786.289    1898.2869 
   30200    302.44367   -1147.3714    6447.8786    11761.752    1887.6841 
   30300    299.58051   -1148.1745    6414.8083    11666.712     1809.519 
   30400    300.70667   -1149.4577    6423.3178    11697.997     1827.851 
   30500    300.20402   -1149.2132    6521.8945     11786.08    1864.0413 
   30600    295.96412   -1150.4277    6431.2189    11603.611    1816.8791 
   30700     304.2825   -1151.4198    6427.0383    11776.147    1873.7825 
   30800    299.63524   -1150.5855    6394.0068    11644.668    1892.0115 
   30900    297.47235   -1160.6653     6309.257    11503.632    1805.7682 
   31000    302.00554   -1159.8677    6412.0626     11704.08     1898.502 
   31100    298.50983   -1158.8709    6522.4633    11740.797     1920.361 
   31200    300.63462   -1157.3856    6450.0303    11715.242    1871.6502 
   31300    303.08897   -1165.8604    6361.7577    11670.928     1910.181 
   31400    297.86485   -1171.5841    6347.4167    11539.258    1923.4444 
   31500    302.03826   -1167.5962    6568.9768    11853.965    1973.8407 
   31600    301.06593   -1160.4784    6465.0046    11736.338    1925.7093 
   31700    294.60868   -1166.2387    6405.7655    11533.389    1929.1562 
   31800    298.87723   -1164.1295    6328.3437    11549.268    1887.5344 
   31900     302.3044   -1160.2039    6416.9717    11715.037    1927.4694 
   32000    303.35764     -1160.26    6429.8147    11750.325    1924.2988 
   32100    299.09004   -1159.8681     6414.595    11644.327    1837.0215 
   32200     300.4914   -1156.9819    6419.2389    11681.795    1849.9338 
   32300    300.37598   -1158.3936    6438.6603    11697.339    1933.4704 
   32400    299.62847   -1156.7956    6407.5141    11651.821    1893.4097 
   32500    301.13588   -1152.0311    6483.0034    11764.278    1840.2994 
   32600    302.79833   -1150.1699    6440.4959    11759.148    1822.4158 
   32700    295.31677   -1151.0379    6470.8549    11628.807     1896.264 
   32800     299.5527   -1144.7594    6274.6244    11529.349    1749.5739 
   32900    301.68019   -1148.2665    6472.4709    11769.139    1852.2392 
   33000     303.0441   -1146.4712    6427.0865    11754.687    1865.3129 
   33100    300.97768   -1140.9493     6437.465    11726.442    1853.1119 
   33200    297.74189   -1141.7432    6466.3759    11685.431    1819.3571 
   33300    301.79848   -1141.6379    6458.1335    11763.957    1897.3225 
   33400    299.90781   -1141.9818    6470.7752    11735.864    1869.3113 
   33500    299.27005   -1145.9527    6410.2239    11657.717    1830.9643 
   33600    302.85891   -1146.0651    6366.1202    11690.171    1799.4447 
   33700    294.00521   -1143.6585    6571.5305    11708.842    1820.9391 
   33800    300.27006   -1149.6911    6469.2706    11734.389    1771.6192 
   33900    301.19092   -1149.5789    6379.1279    11664.031    1824.5099 
   34000     301.3447   -1152.7899    6408.7887    11693.766    1872.4736 
   34100    295.39424   -1152.2393    6476.0202    11634.426    1797.7209 
   34200    303.72925   -1150.4899    6394.1704     11732.39    1791.4772 
   34300    302.09019   -1151.5264    6445.7698    11747.937    1870.8743 
   34400    301.28282   -1155.4559    6431.4433    11712.432    1842.7458 
   34500    299.53197   -1162.7894    6422.3694    11658.621    1836.0296 
   34600    300.16441   -1159.6596    6354.6354    11607.528    1822.5915 
   34700     303.9293   -1163.9077    6379.4906    11708.566    1864.2838 
   34800    300.76443   -1157.8534    6501.1879    11768.705    1819.7734 
   34900    298.70646   -1164.5573    6462.9245    11679.772    1848.2547 
   35000    299.73463   -1164.0716    6375.5754    11614.874    1898.9246 
   35100    296.46649   -1164.7475    6411.4503    11580.254    1892.3594 
   35200    301.07536   -1163.2056    6394.3391    11663.147      1808.85 
   35300    298.32707   -1156.3194    6407.5077    11624.488    1837.0779 
   35400        306.6   -1160.8863     6393.455    11782.607    1865.7786 
   35500    299.62819   -1161.0266    6375.6551    11615.725    1778.6229 
   35600     301.3316   -1159.6248    6457.8507    11735.713    1882.8248 
   35700    297.59693   -1158.6729    6441.5009     11640.53    1872.7611 
   35800    300.04891   -1159.8773    6339.5464    11589.754    1809.3455 
   35900    299.40828   -1161.5531    6372.1559    11607.001    1869.3929 
   36000    300.32068   -1155.1842    6395.8007    11656.507    1939.4257 
   36100     299.9161   -1155.5369    6368.1717    11619.882    1855.3876 
   36200    301.02966   -1156.0139    6424.3508    11699.374    1806.9213 
   36300    298.10892   -1156.2493    6468.1542    11680.545    1876.1443 
   36400    301.71807   -1151.8141    6404.2522    11698.182    1894.4169 
   36500      299.814   -1159.7023    6322.9438    11568.308    1853.0552 
   36600    302.15285    -1156.745    6457.2429     11755.53    1874.0354 
   36700    298.92455   -1154.7842    6617.0218    11848.302    1917.7228 
   36800    302.45062   -1150.2396    6454.4921    11765.646    1846.5465 
   36900    296.24086   -1148.4069    6285.9375    11466.262      1724.99 
   37000    301.84308   -1154.5964    6407.5258    11701.344    1866.1082 
   37100    304.79161   -1154.2338    6463.4519    11820.623    1861.1655 
   37200    299.55375   -1151.4267    6347.2606     11595.34    1867.6269 
   37300    293.99857   -1148.0849    6399.3234    11532.067    1893.2927 
   37400    298.93374   -1157.5848    6458.9325    11687.608    1915.4201 
   37500     303.5604   -1151.9443     6418.598    11751.756    1889.5318 
   37600    300.02792   -1159.6364    6359.2559    11609.256     1847.336 
   37700    299.19705   -1158.6498    6411.4541     11644.69    1875.0364 
   37800     297.1883   -1151.1386    6529.4993    11727.333    1873.3356 
   37900    303.00989    -1151.716    6456.0625    11777.688    1802.1418 
   38000    299.80254   -1156.2031    6373.0578    11621.676    1885.7528 
   38100    294.50009   -1155.6657    6347.5848    11483.462    1866.8567 
   38200    301.47313   -1155.8272    6424.2816    11708.965    1878.6907 
   38300    300.44214   -1153.5324    6507.6122    11772.565    1944.4442 
   38400    298.77728    -1161.027    6425.0097    11646.901    1888.6739 
   38500    302.50785   -1157.6883    6377.2807    11682.209    1766.0391 
   38600    297.64671   -1155.5334    6374.6388    11577.871    1799.8291 
   38700    301.63103   -1156.4916    6448.7701    11736.163    1898.5207 
   38800    298.15069   -1154.1738     6482.332     11697.69    1882.7697 
   38900      302.819   -1156.1078    6455.4975    11768.653    1887.9676 
   39000    300.19364   -1145.7933     6393.259    11660.642    1839.7324 
   39100    299.73013   -1146.8867     6506.325    11762.713    1971.7399 
   39200    302.31823   -1153.3883    6399.7499    11704.927    1901.2504 
   39300    302.91663   -1153.8791    6383.2657    11700.736    1905.0271 
   39400    300.78138   -1153.2353    6409.9531    11682.451    1893.8901 
   39500    300.47273   -1152.2885    6408.2513    11675.102    1913.1394 
   39600    297.37413   -1152.0079    6450.1859     11651.12    1808.9365 
   39700    299.82547   -1151.0969    6322.2174    11576.432    1803.1413 
   39800    304.50226   -1152.6013    6522.4496    11875.072    1864.1087 
   39900    296.92033   -1152.5171    6411.9847    11602.715    1827.3007 
   40000    298.23137   -1152.9762    6345.7966    11564.076    1895.4156 
   40100    302.50016   -1151.9745    6412.6828     11723.16    1971.7381 
   40200    300.42783   -1149.2206    6354.0797    11623.039    1891.4036 
   40300    301.50957     -1155.44    6313.5307     11599.38    1869.3461 
   40400    296.53986   -1149.6096    6451.7928    11637.302    1851.2045 
   40500    301.93255   -1148.2169    6555.3084    11857.417    1889.4868 
   40600    300.83632   -1156.2528    6379.7343    11650.388    1829.4283 
   40700    300.54688   -1152.5847    6376.2944    11644.433    1883.5274 
   40800     298.9868   -1156.9001    6446.8718    11677.366    1942.3387 
   40900    303.15291   -1150.9681    6364.0477    11689.476    1914.3378 
   41000    296.00243   -1155.6574    6440.5415    11608.522    1929.5247 
   41100    298.29212   -1150.9963    6446.6211    11668.178    1902.7083 
   41200    301.32439   -1147.5564     6464.005    11753.782    1869.0552 
   41300    300.66845   -1150.7803    6421.5355    11694.075    1886.8178 
   41400    299.89625   -1151.0399     6381.397     11637.18    1877.6815 
   41500    300.11722   -1154.4773    6353.0947    11610.161    1912.0844 
   41600    296.65916   -1150.2414    6464.1625    11651.589    1913.9249 
   41700    305.54098   -1151.5548    6459.8371    11835.697    1933.6504 
   41800    298.10102   -1159.2042    6369.2991    11578.566    1885.5347 
   41900    301.16459   -1151.7404    6492.8728    11775.052    1933.9316 
   42000    297.20796     -1155.67    6404.8876     11598.61    1877.0895 
   42100    306.32174   -1149.4455    6423.4066    11818.055    1920.5052 
   42200    295.71436   -1147.3879    6468.9714    11639.067    1918.3914 
   42300    302.49287   -1152.2015    6399.4486    11709.543    1867.7507 
   42400    299.41157   -1152.6757    6356.7543    11600.547    1849.2009 
   42500     302.5188   -1151.1044    6426.5175    11738.263     1890.778 
   42600    303.72374   -1153.6035    6462.6344    11797.623    1877.2494 
   42700    296.34081   -1154.1711    6434.6412    11611.337    1888.6114 
   42800    298.49032   -1147.2731    6447.6315    11677.146    1850.1632 
   42900    301.57522   -1145.9077    6366.2637    11663.048    1850.3913 
   43000    295.31241   -1151.1464    6356.6572    11514.407    1880.6155 
   43100    303.67901   -1155.5354    6451.2964    11783.397    1956.7756 
   43200    297.98986   -1151.5338    6335.8509    11550.413    1810.9384 
   43300    302.67668   -1152.4221    6525.7891     11839.59    1904.0549 
   43400    300.50963   -1152.7296     6402.796    11669.993    1848.4849 
   43500    301.40177   -1154.7997    6321.9385    11606.125    1857.5426 
   43600     302.1184   -1154.0649    6385.9487     11686.18    1855.2876 
   43700    299.31526   -1155.2349    6492.7729    11731.949    1853.2047 
   43800    296.86723   -1151.2171    6351.9118    11542.808    1849.0766 
   43900    298.53889   -1157.2212    6415.7668    11636.371    1849.7198 
   44000    302.81029   -1156.9696    6460.2347    11772.342    1918.3365 
   44100    299.05597   -1158.7591     6501.018    11731.131    1904.3388 
   44200    306.57774   -1157.6626    6437.6856    11829.586    1867.4726 
   44300    300.03745   -1159.1401    6453.6017    11704.301    1890.7112 
   44400    297.68225   -1158.8986    6390.6254    11591.251    1849.4559 
   44500     304.6458   -1162.3573    6417.6651    11763.598    1818.9055 
   44600    303.61442   -1160.0325    6459.3313    11785.555    1840.2743 
   44700    298.14559   -1163.0515    6453.9543    11660.326    1823.3454 
   44800    302.68821   -1167.5831    6453.9551    11752.841    1840.3914 
   44900    299.04547   -1163.7746    6355.3135    11580.186    1775.0507 
   45000    296.71268   -1171.9956      6485.49    11652.306    1844.5373 
   45100    302.63007   -1160.2037    6428.9099    11733.933    1861.5268 
   45200    297.32047   -1159.6053    6302.0684    11494.259    1820.8014 
   45300    302.10485   -1157.4464      6334.86     11631.42     1928.249 
   45400    297.34391   -1160.7996    6418.1248    11609.621    1905.6553 
   45500    303.14282   -1165.7972    6408.9863     11719.37    1829.8459 
   45600     298.4128   -1166.8659    6414.6491    11622.915    1813.6684 
   45700    304.02262   -1170.9703    6338.8915    11662.898    1838.0421 
   45800    295.52233   -1168.4885    6389.5424    11534.435     1825.891 
   45900    296.99192   -1165.4243    6437.2212    11616.574    1943.6304 
   46000    299.63243    -1165.343    6442.5792    11678.423     1864.953 
   46100    296.17953   -1161.2802    6344.3334    11510.474    1762.9937 
   46200    298.92323   -1155.7691    6364.4878    11594.755     1794.205 
   46300    300.73933   -1149.7056    6469.7491    11744.878    1872.4966 
   46400    301.78837   -1155.0038    6436.9031    11729.145    1835.3066 
   46500     300.4225   -1149.6352    6425.3271    11693.758     1879.327 
   46600     301.8827   -1154.8642    6325.4826    11619.879    1894.2297 
   46700    299.37916   -1153.3935    6387.1592    11629.542    1843.7874 
   46800    301.78778   -1150.0841    6474.8794    11772.028    1903.1524 
   46900    303.16734   -1150.6131    6455.4645    11781.556    1873.7079 
   47000    300.32761   -1150.4496    6597.3845    11862.973    1854.5447 
   47100     299.7867   -1150.1477    6385.6586    11639.994    1787.8004 
   47200    303.45101   -1149.8123    6323.4876    11656.441    1817.7698 
   47300    302.89508   -1147.2329     6474.334     11797.99     1796.034 
   47400    298.75615   -1137.5687    6603.8452    11848.743    1766.5914 
   47500    302.17211   -1147.6896      6521.78    11829.534    1859.7577 
   47600    300.84653   -1150.3103    6355.8723    11632.686     1851.657 
   47700    300.46238   -1151.3772    6479.8724    11747.413    1866.1273 
   47800    298.72358   -1143.6939    6433.4845    11671.561    1820.8021 
   47900    299.88447   -1153.3649    6381.2409    11634.448    1843.3123 
   48000     298.2267   -1155.5831    6448.5618    11664.135    1775.8758 
   48100    303.15651    -1158.688    6509.0436    11826.829    1818.5824 
   48200    298.16373   -1157.0297    6445.4454    11658.226    1812.1574 
   48300    305.35862   -1163.6365    6423.1409    11783.023    1860.0338 
   48400    301.13495   -1158.0978    6415.1759    11690.364    1809.7326 
   48500    300.12217   -1156.3766    6424.3281    11679.601    1864.6981 
   48600    302.78772   -1159.1517    6467.9233    11777.367    1930.6315 
   48700    293.62955   -1157.4312    6480.2194    11595.733    1902.8767 
   48800    303.48671   -1160.0356    6392.1739    11715.666    1899.4652 
   48900    301.24185    -1165.583    6404.2782    11674.265    1914.4371 
   49000    299.11766   -1156.0081    6447.6671    11681.849    1863.8854 
   49100    297.28512   -1163.7792    6446.0472    11633.308    1821.2276 
   49200    300.21439     -1164.99    6432.6913    11681.321    1898.5683 
   49300    300.96512   -1161.3025    6398.8892    11667.245    1894.5514 
   49400    298.18388   -1163.1251    6369.5974    11576.713    1862.9123 
   49500    301.06714    -1159.756    6445.6366    11717.718    1900.5821 
   49600    297.60692   -1163.1705    6349.8328    11544.578     1848.336 
   49700    303.19605   -1155.9367    6413.4847    11734.866    1843.4175 
   49800        296.4   -1157.8083    6483.4508    11657.774    1853.1673 
   49900    303.87234   -1149.7447    6447.4592    11789.481    1868.6935 
   50000     294.7471   -1148.0838    6403.5047    11552.241    1799.6547 
   50100    300.75684   -1157.7946    6340.7088    11608.123    1832.3013 
   50200    299.88542    -1154.988    6434.8651    11686.469    1899.3901 
   50300    299.22017   -1161.8053    6523.7766    11754.351    1848.1908 
   50400    302.19362   -1159.5403    6435.0959    11731.459    1756.5027 
   50500    299.05335   -1155.0353      6424.27    11658.051    1815.1143 
   50600    299.58177   -1159.8024    6360.3425    11600.645    1878.1795 
   50700    304.39728   -1154.3323    6429.6582    11778.307    1849.7551 
   50800    299.41646    -1155.781    6475.2868    11716.079    1828.7462 
   50900    297.13579    -1159.887    6541.3479    11729.311    1857.9381 
   51000    302.83638   -1164.7044    6353.5254    11658.456    1786.6763 
   51100    297.06745   -1164.7869    6326.7026    11508.306    1857.9483 
   51200    303.78963   -1162.6624    6377.8235     11705.16    1855.9385 
   51300     295.7163   -1163.5724    6435.0003    11588.953    1790.1005 
   51400    301.47121   -1169.1043    6483.6582    11755.024    1796.3741 
   51500    301.03924   -1171.6496    6494.2443    11753.836     1818.855 
   51600    291.93837    -1160.827    6434.3822    11510.371    1852.8079 
   51700    302.90903   -1163.6827    6313.3881    11620.892    1894.0498 
   51800    293.72653   -1159.2808    6477.9458    11593.682    1883.9448 
   51900    301.70969   -1164.8565    6429.0329    11709.741    1900.8665 
   52000    301.66194   -1164.7705    6363.7281    11643.502    1876.1571 
   52100    301.38526   -1164.1892    6473.1792    11747.624    1873.9122 
   52200    297.57894   -1173.2762    6418.6041    11602.645    1857.3771 
   52300    303.63687   -1171.1667    6494.1005     11809.67    1866.0373 
   52400    300.98877   -1163.5704    6443.8284    11710.421    1843.5661 
   52500    299.95704   -1167.0949    6367.8145    11608.842    1815.2303 
   52600     300.7482   -1163.6386    6476.2991    11737.684    1916.9781 
   52700     303.6515   -1159.5206    6452.1165    11779.644    1903.2113 
   52800    296.47352   -1152.0455    6446.9099    11628.566    1915.7675 
   52900    299.98165   -1146.4915    6309.6533    11571.809    1856.0488 
   53000    298.10241   -1150.2413    6408.8343    11627.094     1863.531 
   53100    298.71533   -1155.4265    6454.0638    11680.232    1844.8006 
   53200    296.73399   -1160.4629    6476.9251    11655.729    1851.5717 
   53300    302.95343   -1159.0254    6442.3195    11755.429    1828.9355 
   53400    296.67396   -1158.0622    6500.4974    11680.419    1883.3483 
   53500    304.34274   -1155.9532    6392.3122    11738.175    1875.8756 
   53600    301.53533    -1156.573    6532.0095    11817.276    1924.5407 
   53700     301.0621   -1154.9136    6481.1358    11757.952    1907.8962 
   53800     298.4132   -1149.5697     6350.237    11575.807    1779.0555 
   53900     302.9484   -1154.3527    6451.0933    11768.768    1824.7794 
   54000    301.48883   -1160.3333    6369.4996    11650.013    1867.1064 
   54100    304.01616   -1159.8989    6325.7106     11660.65    1819.0578 
   54200    295.48476   -1159.9662    6486.8957    11639.508     1851.547 
   54300    300.91732   -1167.6617    6454.6235    11715.599    1874.8411 
   54400    299.71555    -1169.867    6324.2017    11557.298    1878.2984 
   54500    297.69711   -1169.3331    6425.2223    11615.731    1906.0367 
   54600    299.50783   -1170.0429    6424.1567    11652.639    1954.1312 
   54700    303.19015   -1165.1044    6408.1223     11720.21    1954.5164 
   54800    297.87678   -1159.2653    6460.6581    11665.073    1917.9054 
   54900    300.38669   -1170.3779    6344.4019    11591.325    1905.8434 
   55000    300.66286   -1164.8508    6317.5744    11575.924    1918.0341 
   55100    298.99038   -1172.8286    6355.9118    11570.554    1911.8706 
   55200    301.36625   -1169.4568    6422.3431    11691.114    1980.2408 
   55300    300.23667   -1168.6738    6453.7589    11699.181    1907.0063 
   55400     299.9558   -1164.4156    6426.2293    11669.909    1873.0281 
   55500    297.52268   -1174.7171    6348.3243    11529.723    1916.2478 
   55600    307.25825   -1161.7309    6495.9844    11898.355    1993.8769 
   55700    294.58058   -1163.3397    6404.3922    11534.315    1866.3449 
   55800    302.16855   -1161.5473    6372.3539    11666.174    1886.8626 
   55900    300.32524   -1155.4466    6451.9641    11712.505     1983.633 
   56000    301.52392   -1160.6109    6460.3896    11741.375    1901.3821 
   56100    300.33963   -1155.0225    6473.6648    11734.938    1888.3193 
   56200    293.03401    -1158.379    6489.0897    11590.933    1804.8654 
   56300    302.34429   -1152.7395    6469.1788    11775.561     1846.198 
   56400    301.64906   -1154.1776    6394.0247    11684.116      1799.87 
   56500    302.50066   -1151.1364    6455.7203    11767.046    1872.4387 
   56600    297.70569   -1148.9043    6497.8866    11709.008    1849.4784 
   56700    302.79124   -1148.4573    6407.1313    11727.344    1815.6083 
   56800    303.28226   -1154.8395    6419.9533    11744.274     1890.255 
   56900    300.49499   -1154.1351    6355.7144    11621.194    1878.9279 
   57000    305.26084   -1153.2452    6483.5582    11851.743    1854.8041 
   57100    298.45601   -1152.8053    6577.0207     11800.27    1894.1945 
   57200    302.82035   -1154.2545     6426.529    11741.567    1875.8371 
   57300    299.80816   -1158.3188    6348.3151    11594.938    1861.4078 
   57400    299.30248   -1156.3774    6460.6804    11698.441    1874.9325 
   57500    304.51953   -1158.1354    6437.9006    11785.358     1891.571 
   57600    297.96662    -1169.166    6282.1311    11478.565    1839.9123 
   57700    301.49266   -1165.6944    6490.1281    11765.362    1934.0022 
   57800    297.56314   -1168.6749    6506.9026    11695.208    1929.1104 
   57900    300.81265   -1171.2167    6359.2819    11614.466    1916.9375 
   58000    303.14595   -1171.1477    6343.5135    11648.614     1916.054 
   58100    297.75264   -1173.6626    6487.8241     11675.19    2000.6503 
   58200    301.59135   -1170.1226    6343.3538    11616.268    1941.3139 
   58300    299.85565    -1176.181    6390.7855     11620.56    1960.1318 
   58400    299.66586   -1177.7511    6372.0407    11596.191     1911.842 
   58500    295.36562   -1174.7494    6419.5381    11554.822    1915.3146 
   58600    300.88862   -1176.7566    6451.6251    11702.892    1933.5707 
   58700    302.66221   -1174.1327    6393.7292     11685.51    1854.4465 
   58800    301.77946   -1177.7786     6468.713     11737.99    1849.9507 
   58900    296.94832   -1175.1434    6351.6536    11520.356    1811.3802 
   59000    296.94014   -1176.5277    6465.6671     11632.81    1876.9664 
   59100    301.64527   -1167.1605     6450.765    11727.793    1907.4825 
   59200    303.88845   -1161.7862    6446.4999    11776.824     1906.221 
   59300    296.73763   -1158.8964    6479.9987    11660.446     1981.043 
   59400    303.53476   -1159.1876    6429.9295    11755.296    1928.5048 
   59500     296.0709   -1159.3189    6324.6933    11490.475    1907.6097 
   59600    299.99608   -1162.6901    6416.1968    11662.463    1898.4296 
   59700    301.83986   -1163.0814      6456.49    11741.754    1882.8488 
   59800    297.76118   -1158.3309    6447.1328    11650.013    1861.8363 
   59900    296.32811   -1153.1274    6523.7705    11701.238    1927.6145 
   60000     305.0936   -1147.9445    6455.4073     11825.32    1922.4203 
   60100    296.97751   -1149.2008    6371.2175    11566.485    1910.2401 
   60200    300.77162   -1150.7415    6425.1036    11699.886    1937.1253 
   60300    302.60376   -1149.0047     6479.031    11794.691    1882.0838 
   60400     298.6854   -1152.9293    6440.6154    11668.641    1872.4788 
   60500    300.98281   -1154.4946    6488.6967    11764.238    1931.3058 
   60600    297.45871   -1159.0745    6379.0607    11574.735    1861.7541 
   60700    304.75826   -1153.5107    6464.5403    11821.722    1938.4862 
   60800    297.22465   -1158.5955    6396.3648    11587.518    1967.5794 
   60900    302.96836   -1159.4973    6397.7199    11710.677    1904.0684 
   61000    297.24294    -1161.527    6489.7798    11678.392    1928.7362 
   61100    301.40543   -1167.2449    6415.2743    11687.094    1839.3223 
   61200    301.84559   -1165.7795    6310.2379    11592.926    1835.4221 
   61300    296.31536   -1166.1104      6429.16    11593.373    1901.2507 
   61400    303.26246   -1166.0266    6371.4785    11684.189     1903.052 
   61500    298.47848   -1167.4463    6487.0581    11696.147    1837.3028 
   61600     303.9358   -1172.2262    6464.4072    11785.303    1860.1929 
   61700    295.02428   -1173.9107    6395.3156    11524.146    1863.1911 
   61800    302.39836   -1176.6003    6467.1275    11750.804    1926.6899 
   61900    299.36064   -1172.1752    6415.8954    11639.101    1914.1513 
   62000    296.40154    -1170.012    6411.4858    11573.638    1913.5149 
   62100    303.86919   -1172.2471    6480.5791    11800.031    1917.4283 
   62200    299.32967   -1169.6357    6354.1858    11579.269    1857.7293 
   62300    303.71624    -1161.108    6431.7712    11759.095      1910.49 
   62400    300.30009   -1166.6838    6415.3517    11664.118    1896.6693 
   62500    299.20184   -1166.0478    6365.3754    11591.316    1868.6782 
   62600    308.14315    -1163.819    6421.3468    11840.534    1937.3445 
   62700    298.17368   -1170.0746    6449.7926    11649.741    1917.6076 
   62800    301.90863   -1163.7737    6332.4122    11618.453    1849.5932 
   62900    299.25395   -1162.1619    6480.9291    11711.869    1919.3876 
   63000    300.85657   -1160.0869    6435.3247    11702.577    1885.6315 
   63100    301.61075   -1158.3745    6431.7252    11716.802    1920.3883 
   63200    300.83323    -1154.764     6418.992    11691.068    1893.5555 
   63300    296.99588    -1154.125    6510.0207    11700.757    1868.5895 
   63400    299.39909   -1154.4908    6478.5507    11720.262    1893.0593 
   63500    306.72718    -1150.201     6350.761    11753.315    1908.1647 
   63600    300.15193   -1155.3093    6344.0403    11601.016    1847.5567 
   63700    299.91231   -1158.3514    6427.3095    11676.124    1811.6901 
   63800    291.16273   -1161.6741    6465.9881    11524.559    1801.3255 
   63900    299.63137   -1158.3926    6485.2049    11727.977     1887.752 
   64000    303.77837    -1159.326    6400.0973     11730.53    1895.1763 
   64100    303.25948   -1161.1985    6334.6067    11652.082    1898.8282 
   64200    299.91575    -1164.089    6430.2827    11673.433    1899.3694 
   64300    299.61512   -1160.8369    6539.3088    11779.289    1866.8288 
   64400    301.28521   -1159.2009     6468.288    11745.583    1802.5382 
   64500     298.3743   -1163.9032    6339.7215    11550.127     1829.534 
   64600    300.59402   -1168.0944    6371.6417    11625.277    1872.5466 
   64700    300.63992   -1164.3364    6491.8964    11750.271     1923.912 
   64800      297.849   -1165.4249    6356.6749    11554.337    1911.4455 
   64900    301.21101   -1166.7536    6387.9784    11656.136    1919.9889 
   65000    299.25529   -1160.0547    6517.8268    11750.902     1870.862 
   65100    298.39468   -1171.3395    6464.1334    11667.538    1846.5917 
   65200    301.97028   -1169.8154    6302.1919    11583.508    1806.0017 
   65300    299.01632   -1163.6354    6438.8106      11663.2    1911.1649 
   65400    303.54247   -1159.8052    6435.8205    11760.734    1889.7966 
   65500    297.35028   -1163.4348    6399.6607    11588.658    1882.1298 
   65600    299.07152   -1162.5641     6384.378    11611.018    1944.2275 
   65700    299.62725   -1160.4225    6457.6956     11698.35    1936.4115 
   65800    301.77084   -1160.5116    6448.7825    11735.142    1895.8505 
   65900    301.37901    -1159.694    6339.2171    11618.023    1878.0888 
   66000    301.74403   -1156.9364    6390.1639    11679.526     1844.373 
   66100    299.53412   -1157.1615    6434.5467    11676.472    1857.1421 
   66200    301.06291   -1156.8769     6447.591    11722.461    1894.0462 
   66300    298.57597   -1154.5194     6455.084    11679.182    1925.2654 
   66400    296.22649   -1155.5329    6367.2318    11540.123    1877.9258 
   66500    303.62647   -1156.5753     6393.331    11723.269    1903.2341 
   66600     297.3724   -1153.6428    6516.1755    11715.438    1837.0465 
   66700    303.16171   -1153.7563    6392.4053    11715.234     1835.995 
   66800    298.61998   -1150.1475    6336.8024    11566.213    1786.5292 
   66900    303.04498   -1155.8037    6488.6492    11806.936    1871.2595 
   67000    300.43399   -1156.8032    6306.6382    11568.146    1837.6206 
   67100    297.43025   -1152.7606    6468.3455    11669.726    1899.8641 
   67200    302.21286   -1161.5296    6507.2836    11802.068      1876.58 
   67300      295.312   -1163.0451    6340.2469     11486.09    1813.9816 
   67400    302.53744   -1167.3636    6452.0723    11747.957    1881.9869 
   67500    302.54504   -1166.2488    6493.4255    11790.587    1788.1578 
   67600    297.51302   -1163.4734    6413.7974    11606.233    1739.1262 
   67700    306.10049   -1162.8684    6375.4372    11751.936    1801.1211 
   67800      296.838   -1157.5285     6454.948    11638.908    1801.4927 
   67900    300.46784   -1166.2427    6344.3516    11597.143    1855.7407 
   68000    302.07929   -1159.3742    6377.0914    11671.178    1960.3063 
   68100     296.0439    -1166.012    6370.1842    11528.696    1827.2964 
   68200     309.7247   -1167.3753    6449.2048    11898.622    1910.2214 
   68300    298.42049   -1173.7527    6445.2865     11646.83    1893.0596 
   68400    299.90491   -1163.6829    6397.8448     11641.17    1850.6648 
   68500    299.02041   -1165.5185    6351.6053    11574.199    1844.0401 
   68600    298.88283   -1165.7034    6335.1967    11554.666     1862.429 
   68700    304.21419   -1170.6538    6451.0172    11779.433    1865.7925 
   68800     300.1041    -1161.216    6545.8004    11795.848    1859.6316 
   68900     300.2535   -1156.2242    6395.2241    11653.455    1851.7481 
   69000    300.29098   -1163.1128    6318.7487    11570.892    1854.4534 
   69100    296.32793   -1169.4272    6444.1945    11605.359    1856.1175 
   69200    302.38239   -1157.8932    6420.5463    11722.589    1858.8074 
   69300    298.67336   -1156.8857    6465.6497    11689.462    1834.7806 
   69400    308.21311   -1159.0742    6449.6114    11875.037    1878.9289 
   69500    298.74365     -1156.64    6400.0238    11625.583    1828.6145 
   69600    293.82079   -1156.2312    6395.0334    11515.833    1838.9339 
   69700    296.27778   -1154.1974    6442.5337    11617.856    1833.3207 
   69800    302.60241    -1157.535    6395.0956    11702.197    1840.1809 
   69900    296.46403    -1160.092      6383.32    11556.727    1839.1759 
   70000    294.97867   -1158.8614    6553.9764    11696.882    1913.9645 
   70100     298.5928   -1156.4715    6501.6478    11724.153    1813.6187 
   70200     302.1203   -1163.4067    6385.8381    11676.768    1823.1708 
   70300    302.12911   -1167.9253    6300.0635    11586.663    1901.5675 
   70400    299.58712   -1162.6225    6477.1723    11714.769    1895.8531 
   70500    299.98922   -1155.0004     6397.238    11651.047    1779.2113 
   70600    302.04813   -1163.9848    6403.7495     11692.56    1902.2153 
   70700     296.6382   -1159.4526    6405.5177    11583.285    1878.4958 
   70800    302.65568   -1163.9765    6323.8607    11625.659    1781.9694 
   70900    297.87783   -1164.3663     6420.857    11620.193    1873.6839 
   71000     304.9445    -1170.435    6451.2655    11795.502    1877.2273 
   71100    300.78164   -1165.4238    6378.2209    11638.535    1747.9366 
   71200    300.13634    -1167.292    6435.2188    11679.879    1887.4036 
   71300    293.19076   -1169.5923    6429.1348    11523.113     1960.909 
   71400    301.86951   -1163.1099    6341.3408     11627.21    1824.6696 
   71500    300.40227   -1164.1573    6473.1836     11726.66    1929.9686 
   71600    301.31725   -1160.1285    6360.3907    11637.443     1915.464 
   71700    295.61092   -1160.1241    6409.6441    11564.794    1866.3533 
   71800    302.55216   -1164.7719    6371.2162    11670.007    1875.6947 
   71900    298.48495   -1159.3259    6442.4502    11659.797    1950.0768 
   72000    297.61694   -1166.9863    6418.7461    11609.889    1873.5556 
   72100    304.48285   -1163.4128    6439.0019    11780.398    1870.3321 
   72200    300.08174   -1161.9346    6531.7354    11780.587    1944.8043 
   72300    300.58356   -1161.2616    6380.9153     11641.16    1887.9405 
   72400    299.01924   -1160.0737    6437.6303    11665.644    1941.8391 
   72500    302.03403   -1151.0127    6383.6803    11685.161     1941.774 
   72600    299.08633   -1152.5111     6337.252    11574.261    1890.0154 
   72700      298.248   -1155.9266    6497.9859     11713.67    1864.4229 
   72800    301.69812   -1159.2829    6458.0619    11744.096    1853.5119 
   72900    296.79969   -1155.6549     6394.384    11579.399    1855.9073 
   73000    302.02011   -1164.7767    6380.0445    11667.464    1835.4064 
   73100     298.2212   -1158.7361    6534.2961    11746.598    1928.4889 
   73200    300.37841   -1155.3868    6347.5372    11609.274     1861.469 
   73300    300.11933   -1160.4276    6356.9998    11608.161     1811.913 
   73400    298.91191   -1162.4075    6403.1359    11626.523    1900.5021 
   73500    303.45439   -1160.0155    6385.2014    11708.023    1899.6871 
   73600     299.5461   -1154.9165    6437.2227    11681.649    1824.7658 
   73700    297.36256   -1164.9287     6387.479    11575.245    1801.7564 
   73800    299.68659   -1168.8689    6394.6766    11628.152    1822.5636 
   73900    302.06323   -1167.6305    6425.4165    11710.903    1861.5619 
   74000    298.94061   -1170.4571    6434.8166    11650.767    1889.7807 
   74100    303.02349   -1164.2365    6371.0352    11680.431    1851.3887 
   74200    298.61695   -1167.7396    6460.3559    11672.109      1934.55 
   74300    304.32407   -1166.8065    6395.9489    11730.559    1932.8966 
   74400    295.92693   -1160.1434    6358.8759    11520.757    1918.4146 
   74500    299.76586   -1161.1433    6376.3447    11619.239    1880.7888 
   74600    299.65332   -1162.5198    6468.3841    11707.498    1924.6578 
   74700    292.97599   -1164.2263     6350.588    11445.344    1835.6326 
   74800    299.14117   -1163.5048    6366.1508    11593.338    1802.7597 
   74900    301.93912   -1163.5675    6539.3414     11826.24    1864.0557 
   75000    300.27982   -1165.2374    6390.9584    11640.739    1823.4567 
   75100    301.39119   -1163.0874    6344.7703    11620.443    1823.6676 
   75200    301.16502   -1157.9569     6529.812    11805.784    1887.1299 
   75300    298.95442   -1155.2374    6516.4524    11747.917    1859.1372 
   75400    296.70767   -1152.8485     6332.061    11517.917    1899.5337 
   75500    303.88456   -1155.7537    6321.9043    11658.178    1833.5018 
   75600    292.80297   -1154.4847    6592.2989      11693.1    1848.2555 
   75700    305.51532   -1153.4937    6512.5329    11885.905    1902.5602 
   75800    294.95817   -1155.0083    6419.9945    11566.315    1871.9278 
   75900    300.56845    -1151.886    6408.3231    11677.621    1834.2204 
   76000    302.35104   -1153.2732    6375.7548    11681.748     1845.829 
   76100    303.75754   -1154.7695    6485.5986    11820.143    1879.4944 
   76200     300.7981   -1151.0742    6625.6437    11900.659    1856.5899 
   76300    298.17044   -1152.6889    6368.9905    11586.256    1802.6594 
   76400    301.34506   -1160.4253    6320.8155    11598.165     1891.193 
   76500     300.0602   -1156.3274    6330.2187    11584.217    1844.9857 
   76600    296.95611   -1159.4156    6476.0184    11660.614    1834.6586 
   76700    302.02226   -1158.6041    6528.3086    11821.947    1880.1403 
   76800    294.49608   -1163.7478    6443.6317    11571.341    1849.7227 
   76900    305.46041   -1168.0137     6289.206    11646.885     1818.322 
   77000    302.72725   -1168.6012    6406.8698    11705.572    1868.5959 
   77100    298.30616    -1168.896    6426.4553    11630.413    1866.7723 
   77200    305.30122   -1161.9711    6452.8465    11813.167    1846.7323 
   77300    295.48508   -1168.7668    6424.5681    11568.387    1854.0966 
   77400     296.9692   -1171.9964    6386.4692    11558.764    1886.5101 
   77500    303.21043   -1167.0933    6467.1099    11777.642    1885.9018 
   77600    306.20055      -1168.7    6378.0409    11750.846    1849.6599 
   77700    300.21847   -1168.0897    6540.2858    11785.903    1969.4358 
   77800    298.87238   -1168.1746    6359.0594    11575.835    1852.4376 
   77900    302.18339   -1170.8968    6445.0968    11729.885    1827.9109 
   78000    296.72843   -1169.1811    6376.0139     11545.98    1839.6847 
   78100    299.56457   -1172.1769    6425.9294     11653.49    1864.6817 
   78200    301.45121   -1166.5083    6445.2095    11718.744    1854.8758 
   78300    298.03616   -1165.1175     6437.139    11639.107    1859.7567 
   78400     300.5602   -1168.0188    6423.4712     11676.46    1851.6445 
   78500     303.6924   -1164.5079    6375.2884    11698.703    1814.7844 
   78600    295.92751   -1165.7727    6428.0743    11584.339    1860.6663 
   78700    298.55687   -1155.3676    6525.8427    11748.685    1954.2774 
   78800    306.27413   -1152.8251    6447.8184     11838.07    1872.9327 
   78900    300.72072   -1161.6876    6361.4112     11624.16    1775.8095 
   79000     296.7099   -1158.1317    6410.9169    11591.537    1872.7888 
   79100    302.23283   -1156.6736    6419.1155    11719.183    1854.3309 
   79200    291.71773   -1160.2384     6448.986    11520.849    1821.2956 
   79300    302.48867   -1156.6097    6552.9018    11858.498    1893.5277 
   79400    298.09091   -1152.7385    6371.3155    11586.832    1837.3941 
   79500    301.38969   -1154.9913    6450.8429     11734.58    1825.5588 
   79600    303.19447   -1153.8096    6448.5927    11772.068    1910.7686 
   79700    303.72018   -1155.7857    6343.6645    11676.394    1872.6863 
   79800    300.19504   -1154.1124     6522.944    11782.038    1879.3052 
   79900    301.17389   -1162.7934    6521.5928    11792.917    1855.0551 
   80000    295.42128    -1161.868    6419.2453      11568.6    1896.3088 
   80100    305.12962   -1161.3758      6405.79     11763.04    1857.5043 
   80200    298.19293   -1165.3736    6401.1546    11606.215    1725.1989 
   80300    299.70024   -1163.7284    6372.0031     11610.91    1846.2496 
   80400    300.96851   -1165.3988    6415.2987     11679.63    1870.0084 
   80500    300.37369   -1165.1361    6546.7075    11798.594     1923.817 
   80600    301.87425   -1168.4362    6406.0296    11686.674     1892.301 
   80700    301.55438   -1166.2968     6325.786    11601.736    1890.2109 
   80800    301.34823    -1168.363    6345.3954    11614.875    1831.8143 
   80900     296.8247   -1166.8153    6469.8567    11644.246    1890.2035 
   81000    303.96093    -1169.754    6525.2529    11849.158    1939.8202 
   81100    300.73067   -1170.9091    6407.5026    11661.243    1899.0336 
   81200     296.9923   -1166.4755    6332.0642    11510.374    1867.2532 
   81300    307.93629   -1163.0316    6473.1348    11888.689    2011.3129 
   81400    299.76591   -1168.7132    6399.1102    11634.436    1933.1404 
   81500    298.40316   -1167.2724    6368.0074    11575.661    1848.8489 
   81600    302.71658   -1162.4162    6384.9885    11689.648    1924.0685 
   81700     297.6572   -1165.2999    6434.4871    11628.177    1904.8525 
   81800    305.83603   -1169.0543    6457.1558    11821.819    1897.5506 
   81900    299.95182   -1164.4939    6303.8418    11547.358    1858.1252 
   82000    299.07179   -1158.8566    6408.3373     11638.69    1908.3672 
   82100    299.58621   -1163.9869    6505.8293    11742.042    1915.7096 
   82200    301.51933   -1165.5568    6378.1623    11654.103    1855.2995 
   82300    305.04596   -1154.7606    6479.6807    11841.759    1923.0337 
   82400    297.73946    -1154.696     6364.685    11570.736    1866.7303 
   82500    305.74069   -1153.7497    6434.1787     11812.11    1965.3198 
   82600    296.14464   -1155.7306    6460.5783    11631.523    1974.2188 
   82700    299.53941   -1153.7373    6352.2074     11597.67    1848.4735 
   82800    295.27824   -1151.3076    6377.8523    11534.711    1849.0375 
   82900    305.35634   -1157.4116    6466.0427    11832.101    1860.0377 
   83000    291.90193   -1156.4104    6579.9591    11659.586    1878.9729 
   83100    298.99743   -1161.0812     6305.529    11532.069    1756.1451 
   83200    296.56775   -1159.4078    6386.3917    11562.699    1901.6357 
   83300    300.56074   -1164.8334    6466.6075    11722.793    1931.0337 
   83400    298.20688   -1159.0622    6436.2158    11647.886    1817.5246 
   83500     297.7977   -1161.5712    6491.4752    11691.895    1858.8848 
   83600    308.36341   -1162.9825    6417.0638    11841.792    1945.9912 
   83700    300.94818    -1162.728    6389.9792    11656.547    1839.5416 
   83800     301.0792   -1162.3901    6456.2774    11725.982    1833.4834 
   83900    299.56236   -1162.9585    6425.8279     11662.56    1917.1942 
   84000    301.57742   -1170.6435    6392.7993    11664.895    1829.4304 
   84100    295.72865     -1172.71    6388.1353    11533.214    1813.8701 
   84200    298.06239   -1173.7175     6378.413    11572.341    1888.8762 
   84300    298.64982   -1165.2073    6465.8865    11680.874    1911.0406 
   84400    301.07635   -1169.7311    6434.3203    11696.623    1867.8649 
   84500    295.39226   -1170.9547     6300.714    11440.362    1844.9891 
   84600    304.69935   -1165.4791    6374.8633    11718.818    1858.4967 
   84700    299.28598   -1168.0298    6482.0655    11707.821    1840.6875 
   84800    301.71279   -1165.1063    6420.2044    11700.729     1894.694 
   84900    298.15438   -1159.5188    6357.2856    11567.378    1909.7766 
   85000    296.37212   -1167.9659    6352.5989    11516.169    1845.3866 
   85100    298.39515   -1165.3146    6382.2276    11591.668    1886.4095 
   85200    301.82921   -1163.6669    6485.8671    11770.318    1915.8183 
   85300    297.37159   -1163.2458    6364.6203    11554.262    1766.2304 
   85400    299.58886   -1157.0003    6551.8573    11795.113      1905.37 
   85500    303.09521   -1161.5003    6405.5709    11719.235    1933.1692 
   85600    301.23624   -1160.5307    6300.5856    11575.505    1856.7991 
   85700     297.7422   -1154.0668    6574.9287    11781.667    1967.5348 
   85800    297.93626   -1153.4364    6503.6516    11715.166    1913.3902 
   85900    299.89026   -1151.5393    6343.5526    11598.709    1785.8193 
   86000    301.29536   -1154.6194    6482.1834    11764.277    1852.3831 
   86100    300.45938   -1154.1026    6431.9978    11696.749    1883.6992 
   86200    298.43622        -1157    6339.8461    11558.478     1817.026 
   86300     298.9284   -1155.4528      6508.59    11739.284    1906.3789 
   86400    305.64016   -1157.9011    6483.8575     11855.49    1892.0813 
   86500    297.79742   -1159.5234    6386.9646    11589.426    1883.8256 
   86600    301.54009   -1154.2331    6430.9262    11718.634    1926.4429 
   86700    298.49276   -1155.6183    6469.6805    11690.902    1907.5073 
   86800    304.94911   -1167.2885     6462.162    11809.643    1946.4848 
   86900    299.32142   -1160.6398    6434.8945    11668.797    1887.5222 
   87000    299.35962   -1168.0878    6337.3847    11564.656     1842.456 
   87100    302.18059   -1166.8169    6426.8317     11715.64    1908.9971 
   87200    297.38345   -1174.8318    6549.5188    11727.828    1904.7701 
   87300    304.49061    -1177.445    6396.0983    11723.628    1831.4749 
   87400    301.17096   -1172.9711    6387.4344    11648.519    1919.8252 
   87500    299.47457   -1167.5442    6289.5972    11519.868    1910.6398 
   87600    294.20393    -1165.836    6442.8156    11562.195    1949.9952 
   87700    300.18229   -1167.7974    6371.0299    11616.167    1948.9441 
   87800    297.74846   -1172.1124    6376.3941    11565.221    1939.8159 
   87900    300.31875   -1178.6958    6305.4206    11542.574    1866.9059 
   88000    295.25287   -1177.7981    6523.7754    11653.602    1966.5637 
   88100    298.90734   -1178.1886    6545.4355    11752.943    1973.5362 
   88200    301.98363    -1179.096    6361.2758    11633.597    1833.2142 
   88300    291.93236   -1176.5482    6421.0298    11481.169    1848.9216 
   88400    300.83798   -1172.5864    6450.9674    11705.323    1917.7282 
   88500    300.60325   -1169.2868    6390.7959    11643.436    1875.9584 
   88600    299.41281   -1165.4848     6450.194    11681.205    1951.9949 
   88700    301.01796   -1159.9628    6383.7282    11654.552    1958.5994 
   88800    299.07775   -1158.9894    6411.3532    11641.701       1922.6 
   88900    301.86382   -1164.4963    6507.2045    11791.565    1991.7927 
   89000     305.2553   -1160.4318    6478.7097    11839.589    1955.0507 
   89100    298.53002   -1163.6548     6442.855    11656.836    1922.7112 
   89200    298.56671    -1158.554    6399.6742     11619.54    1877.4792 
   89300     303.1671   -1161.0945    6456.4136    11772.019    1932.4585 
   89400    296.31929   -1153.7996    6522.8965    11699.504    1985.1027 
   89500    303.21606   -1150.7431    6366.0482    11693.051    1961.3701 
   89600    296.23627   -1152.9214    6457.6849    11633.397    1917.5928 
   89700    301.98153   -1148.6718    6569.0805    11871.781    1945.3019 
   89800    304.19148   -1154.9633    6315.0527    11658.674      1858.06 
   89900     298.3099   -1153.4426    6530.8093      11750.3    1978.5881 
   90000    304.03236    -1155.575    6366.7105     11706.32    1868.4651 
   90100    297.43297   -1160.1714    6374.0485    11568.076    1885.8131 
   90200    299.00456   -1163.5593    6435.5308    11659.745    1858.3261 
   90300    299.54874   -1160.2922    6552.8713    11791.978    1914.3568 
   90400    303.45024   -1162.8189    6468.8425    11788.772    1892.9601 
   90500    296.99747    -1163.358    6401.1364    11582.674    1894.2961 
   90600    299.71863   -1161.8581    6361.0235    11602.194    1871.3508 
   90700    299.60336   -1159.9904    6407.2924    11647.868    1907.5154 
   90800    303.87021   -1163.7998      6491.92    11819.841    1960.9949 
   90900    298.45733   -1172.9877    6338.6102    11541.705    1887.1539 
   91000    301.50069     -1169.82    6410.5135    11681.793    1896.1313 
   91100    297.44365   -1173.9459    6458.8063    11639.288    1846.8151 
   91200    299.57986   -1173.7099    6467.2302    11693.584    1862.3645 
   91300    298.60977   -1175.2339     6409.828    11613.934    1898.0473 
   91400    298.10011   -1174.6174    6356.9572    11550.791    1843.0054 
   91500    306.16696   -1171.3817    6407.3254    11776.731    1955.8697 
   91600    297.70221   -1175.6975    6411.5432    11595.797    1890.3092 
   91700    298.33371   -1164.9545    6514.9119    11723.399    1922.0698 
   91800    300.09194   -1163.4969    6410.9002    11658.407    1869.4079 
   91900    304.38775   -1166.4931    6462.6895    11798.974    1896.8083 
   92000    298.80201   -1168.6903    6376.3994    11591.156    1868.4844 
   92100    300.86246   -1167.9862    6273.7227    11533.201     1868.204 
   92200     300.1882   -1163.7407    6487.5716    11736.891    1978.6143 
   92300    299.93041   -1159.5213    6457.5903    11705.622    1859.9593 
   92400    301.22351   -1160.5981    6448.7272    11723.307    1882.4497 
   92500    294.63303   -1151.9776    6447.0972    11589.502    1907.6765 
   92600    301.45822   -1157.1916    6351.8322    11634.833    1881.6095 
   92700    298.46139   -1155.3484    6536.6564    11757.478    1910.6056 
   92800    303.56322    -1158.824    6467.7592    11794.097    1967.4836 
   92900    298.08075   -1157.2792    6343.7254    11554.484    1890.1333 
   93000    298.92321   -1155.0601    6392.4232    11623.399    1859.1675 
   93100    305.33821   -1153.4021    6432.4238    11802.104    1911.1466 
   93200    302.44375   -1154.3625    6535.0114    11841.895    1964.2397 
   93300    298.19648   -1156.4123    6477.5459    11691.644    1901.8536 
   93400    302.97179   -1151.6684    6333.0729    11653.932    1907.5728 
   93500    295.72184   -1162.8336    6352.1183    11506.928    1829.8254 
   93600    296.79494   -1159.9905    6493.0777    11673.656     1850.527 
   93700    303.30981   -1157.4708    6467.5164    11789.794    1877.5128 
   93800    299.69975   -1163.4358    6424.4842    11663.674    1884.4553 
   93900    301.65696   -1170.7642    6456.3793    11730.053     1943.414 
   94000    296.36067   -1172.4076     6433.851    11592.734    1915.1297 
   94100    298.54181   -1169.0665    6453.1642    11661.985    1903.9209 
   94200    303.92051   -1170.8019    6367.4431    11689.437    1873.5717 
   94300      297.399    -1172.645    6350.2992    11531.128    1865.6414 
   94400    300.33454   -1169.0097     6499.234    11746.411    1957.0043 
   94500    298.00593    -1171.184    6400.9528    11596.208     1898.244 
   94600    299.12829   -1167.8724    6420.0578    11642.602    1898.6255 
   94700    299.96703    -1167.601    6431.0006    11671.735    1926.6375 
   94800    304.20344   -1172.5048    6409.5953     11735.93    1854.2332 
   94900     300.2492   -1173.8139    6398.3259    11638.876    1842.0483 
   95000    297.83628   -1181.2613    6393.7016    11575.255     1894.914 
   95100    298.85993   -1179.6776     6418.649    11623.655    1872.8066 
   95200    301.08355   -1166.1407    6552.0763    11818.124    1907.4268 
   95300    301.85505   -1162.0731    6404.9099    11691.507    1854.7783 
   95400    297.98761   -1163.8854    6399.7593    11601.922    1991.7855 
   95500      299.546   -1161.4569    6426.8346    11664.718    1982.1742 
   95600    299.50276   -1163.5269    6369.2346    11604.125    1863.9724 
   95700    300.17333    -1159.155    6523.0048    11776.592    1955.4798 
   95800     299.2485   -1159.1457    6506.3861    11740.225    1873.1446 
   95900    302.09017   -1160.6564     6374.704    11667.741    1816.6112 
   96000    297.95837   -1159.1016    6359.8845    11566.206    1903.9342 
   96100    299.17245   -1158.1107     6489.463    11722.713    1992.2585 
   96200    304.13155    -1155.081    6310.8639    11653.087    1879.9921 
   96300    300.07693   -1152.9055    6421.0702    11678.848    1899.6273 
   96400    300.22278   -1154.7012    6544.9646    11804.063    1930.9927 
   96500      295.304   -1151.7793    6449.5936    11606.531    1846.6038 
   96600    300.74857    -1154.328    6392.7632    11663.467    1840.5487 
   96700    303.16233   -1156.2184    6463.6926    11784.072    1903.0363 
   96800    293.36081   -1156.0853    6482.0531    11593.171    1865.5039 
   96900    300.51184   -1158.0795    6416.0114    11677.906    1802.2222 
   97000    297.27778   -1163.4291    6490.9114    11678.366    1903.1712 
   97100    299.76916   -1163.9807     6398.026    11638.153    1837.4037 
   97200      303.923   -1162.5067    6393.6221    11723.964    1799.2888 
   97300    298.22939   -1156.6981    6364.2778    11578.793    1872.0362 
   97400    299.96845   -1156.9151    6426.9379    11678.388    1915.3005 
   97500    295.90684   -1159.8718    6442.3333    11604.057    1870.5974 
   97600    304.11068   -1160.0024    6334.5454    11671.401     1866.025 
   97700     296.2217   -1165.7894    6430.7925    11593.325    1848.8397 
   97800    298.65658   -1158.7553    6514.2109    11735.795    1830.9597 
   97900    300.48525   -1169.8451    6419.3688     11668.93    1814.9783 
   98000    306.11954   -1170.5792    6343.7054      11712.9    1886.3967 
   98100    298.23873   -1164.1468    6439.4214    11646.687    1934.4655 
   98200    302.78764   -1163.5691    6441.2302    11746.255    1936.8093 
   98300    298.30738   -1158.2152    6268.5809    11483.245    1923.9011 
   98400    301.30156   -1162.0948    6392.9387    11667.689    1933.7342 
   98500    299.58214   -1158.2374    6531.4204    11773.296     1936.486 
   98600    297.96815   -1161.2056     6348.492    11552.919    1909.0516 
   98700    295.61271   -1156.1427    6388.1001    11547.269    1954.2548 
   98800    301.88686   -1158.2612    6431.7054    11722.794    1894.6638 
   98900    299.25388   -1160.6832     6387.095    11619.512    1905.6293 
   99000     302.0625   -1157.5488    6481.3106    11776.864    1965.0121 
   99100     298.9489   -1160.6106    6364.5151    11590.489    1892.5319 
   99200    302.81165   -1161.1329    6321.2309    11629.204    1811.8413 
   99300    296.79096   -1157.5429    6399.9095     11582.85    1869.3631 
   99400    304.96339   -1153.6721    6517.0925    11878.495    1912.8009 
   99500    296.68104   -1153.6914     6414.154    11598.598    1823.3422 
   99600    303.44372   -1156.4807    6331.4512     11657.58    1856.5515 
   99700    301.79731   -1153.7425    6345.8966    11639.591    1835.7008 
   99800    300.60052   -1151.2014    6484.8468    11755.514    1856.7761 
   99900    300.22541   -1160.5171    6480.7484    11734.087    1880.9139 
  100000    301.01578   -1161.2829    6472.0211    11741.479    1915.2441 
  100100    297.29642   -1166.6349    6425.6626     11610.31    1870.6532 
  100200    300.10242   -1167.5777    6378.0358    11621.686    1930.4387 
  100300    295.29184   -1163.1731    6400.6337    11545.918    1979.5821 
  100400    302.38869   -1159.9754    6459.9572    11760.052    1980.3166 
  100500    299.69786   -1157.3814    6459.3061     11704.51    1868.8217 
  100600    297.94054   -1158.4381    6378.8584    11585.463    1925.5794 
  100700     303.9905    -1168.792    6323.0561    11648.555    1897.6757 
  100800    298.75768   -1160.6618    6428.9129    11650.751    1858.3026 
  100900    298.06426   -1161.6883     6499.834    11705.831    1972.8549 
  101000    301.57077   -1168.3947    6425.2401    11699.442    1945.9168 
  101100    299.60006   -1164.6474    6411.9819     11647.83    1893.3573 
  101200    295.47324   -1166.5274    6390.8074    11536.612    1863.0766 
  101300    302.21628   -1160.2934    6478.6951    11774.789    1875.3824 
  101400    300.38102   -1163.5186    6401.0338    11654.695    1881.1503 
  101500    294.39715   -1162.5605    6421.5816    11548.364    1952.7012 
  101600    307.15986   -1157.9725     6397.302    11801.329    2003.6833 
  101700    303.35713   -1165.0418    6390.8302    11706.548    1985.1299 
  101800    301.07178   -1166.6056    6558.6194     11823.95    2001.5955 
  101900    301.76471   -1157.9652    6369.4856    11658.261    1823.3518 
  102000    303.90599   -1164.9834    6465.1018    11792.604    1903.0835 
  102100    298.79706   -1167.7208    6467.7836    11683.404    1907.2134 
  102200    301.50231   -1162.8541    6287.0521    11565.332    1899.5569 
  102300    296.98599   -1157.2292    6418.8967    11606.317     1904.912 
  102400    303.76311   -1160.6603    6461.9414    11790.714    1886.4111 
  102500    298.52935   -1153.9253    6492.9285    11716.625    1937.6066 
  102600    296.85078   -1158.6336    6418.8015    11601.929    1925.3635 
  102700    297.67536   -1159.3897    6349.8379    11549.825    1920.0856 
  102800    302.11626   -1155.8229    6416.2566    11714.684    1899.2826 
  102900    298.85383   -1164.7576    6513.5393    11733.335     1868.319 
  103000    303.62415   -1160.0747    6448.4912    11774.881    1905.1122 
[...]
  588400    298.93512   -1159.5197    6407.5561    11634.326    1909.5921 
  588500    299.33121   -1160.0724    6399.6019    11634.281    1880.4129 
  588600    300.64043   -1167.3541    6378.8663    11634.234    1874.9225 
  588700    299.08414    -1165.538    6410.3325    11634.268    1853.8087 
  588800     296.0564   -1163.2399    6472.6822    11634.233    1876.4198 
  588900    300.40351   -1155.4779    6372.0142    11634.196     1946.631 
  589000     301.0059   -1158.9059    6362.5451    11634.168    2007.6931 
  589100    295.14017     -1159.22    6488.2306    11634.227    1947.9856 
  589200    297.82046   -1156.2683    6428.0313     11634.24     1932.641 
  589300    300.05588   -1162.2994     6386.345    11634.279    1927.0514 
  589400    297.84995   -1165.8705    6437.0943    11634.331    1928.0899 
  589500    299.45563   -1168.9941    6405.9348    11634.351     1928.866 
  589600     298.8409   -1172.2625     6422.376    11634.391    1889.3085 
  589700    301.26809   -1172.4952    6370.8242     11634.46     1861.344 
  589800    295.06364   -1166.6764    6497.4657    11634.371    1935.7886 
  589900    298.82735    -1163.264    6413.6797    11634.404    1910.1368 
  590000    297.77355   -1162.9603    6435.8194    11634.334    1891.1911 
  590100    299.59565   -1158.2334    6392.1437    11634.312    1922.1822 
  590200    301.48566   -1159.0574     6352.574    11634.295    1845.5422 
  590300    299.04918   -1167.3511    6413.0259    11634.402    1864.9259 
  590400    301.58349   -1171.8836    6363.4402    11634.425    1885.2084 
  590500    292.42553   -1172.1393    6559.3089    11634.392    1897.8615 
  590600    301.04778   -1172.2296    6375.1816    11634.376    1842.6379 
  590700    298.54657   -1168.7756    6425.1763     11634.39    1910.7376 
  590800    298.98306   -1166.9784    6414.0001    11634.336    1882.0775 
  590900    298.60474   -1164.2287     6419.322    11634.325    1868.7012 
  591000    296.37444   -1159.3757    6462.0079    11634.217    1944.6613 
  591100    303.23727   -1163.8138    6319.8497    11634.235    1950.6064 
  591200      299.188   -1160.6797    6403.1813    11634.194    1953.2722 
  591300    298.41595   -1162.2405    6421.3707    11634.329    1924.4644 
  591400    297.38195   -1171.6842    6452.8115    11634.236    1918.1728 
  591500    299.80539   -1167.3767    6396.7043     11634.21    1855.7682 
  591600    298.94352   -1166.9081    6414.6639    11634.225    1876.9996 
  591700    297.77912   -1163.6747     6436.358    11634.277    1912.1077 
  591800    297.72727   -1164.5084    6438.2823     11634.26    1910.1996 
  591900    297.20686   -1164.7017    6449.4977    11634.165     1901.735 
  592000    299.17755   -1158.4404    6401.2281    11634.257    1922.2499 
  592100    297.72616   -1157.7338    6431.5188    11634.247    1944.6245 
  592200    301.82998   -1163.6841    6349.7584    11634.209    1871.2014 
  592300    296.54047   -1159.7926    6459.0024    11634.342    1929.5005 
  592400    295.79618    -1168.835    6483.9268    11634.323    1874.8653 
  592500    299.40421   -1165.5907    6403.6149    11634.336    1852.4988 
  592600    299.92514   -1164.1084    6391.0953    11634.427    1840.0566 
  592700    299.75825   -1169.2775    6399.8099    11634.408    1878.5538 
  592800    298.94288    -1164.608    6412.4609    11634.309    1855.2981 
  592900    298.89917   -1166.6272     6415.429    11634.324    1901.1781 
  593000    301.79963   -1168.2636    6355.1264    11634.349    1861.6786 
  593100     299.4458   -1165.5839    6402.7539     11634.37    1927.7099 
  593200    298.61543   -1167.5583    6422.5213    11634.423    1894.8984 
  593300    299.45245   -1169.6933    6406.6543    11634.303    1881.4749 
  593400    298.60886   -1171.3417     6426.387    11634.365    1901.5717 
  593500    298.62867   -1162.4225    6417.0209    11634.342    1757.3503 
  593600    299.90917   -1165.4275    6392.6614    11634.333     1789.762 
  593700    299.85911   -1169.5309    6397.9137    11634.413    1838.9822 
  593800    300.77569   -1165.0392    6373.7594    11634.331    1855.7818 
  593900    301.31219   -1161.1336    6358.4204    11634.359    1867.2968 
  594000    295.46227   -1161.2642    6483.5153    11634.349    1887.1539 
  594100    301.13113   -1162.3093    6363.3754    11634.271    1832.7565 
  594200     304.2707   -1163.4094    6297.4089    11634.276    1786.8587 
  594300    297.38793   -1161.8422    6442.9646    11634.359     1849.183 
  594400    301.06315   -1162.2225    6364.7315    11634.261    1892.7625 
  594500    296.31531   -1161.0342    6464.9135    11634.201    1862.7114 
  594600     300.7666   -1162.1118    6370.9618    11634.267    1825.8923 
  594700     298.2002   -1159.8632    6423.4973    11634.224    1941.1934 
  594800    298.60081   -1159.9704    6415.0333    11634.211    1840.8398 
  594900    299.13001   -1165.2173    6409.0022    11634.239    1883.6284 
  595000    299.58592   -1161.1528    6395.0972    11634.138     1911.082 
  595100    295.32487   -1157.6149    6482.6825     11634.23    1892.6336 
  595200    300.84465   -1160.7818    6367.8987    11634.201    1830.6713 
  595300     296.0509   -1157.3127    6466.7532    11634.114    1935.9842 
  595400    301.61989   -1160.5195     6351.048    11634.175    1893.0761 
  595500    296.81202   -1165.1104    6458.4526    11634.276    1858.3017 
  595600     297.6147    -1169.039    6445.2857    11634.328    1910.9196 
  595700    298.77068   -1168.1335    6419.6869     11634.33    1862.0942 
  595800    296.38209   -1158.8273    6461.4277    11634.349    1801.6185 
  595900     297.6452   -1162.8408    6438.4315    11634.324    1864.9224 
  596000    300.61379   -1167.0697    6379.2398    11634.323    1902.0268 
  596100    297.55908   -1164.0243     6441.485    11634.354     1786.898 
  596200    301.18097   -1164.4165    6364.5259    11634.379    1833.3597 
  596300    302.73561   -1165.9499    6332.9009    11634.433    1930.3829 
  596400    298.01564   -1170.9082    6438.5941    11634.333    1818.6939 
  596500     299.2787   -1169.7941    6410.5299    11634.366    1838.2291 
  596600    300.45355   -1169.3317    6385.0789    11634.476    1868.6193 
  596700    299.98662   -1175.9002     6401.611    11634.465    1878.8024 
  596800    299.18073   -1165.7105    6408.5872    11634.414    1887.8056 
  596900    302.93535   -1167.9899    6330.7172    11634.476    1941.0335 
  597000    299.96697   -1169.6617    6395.7555    11634.428    1919.8596 
  597100    298.61936    -1165.326    6420.1184    11634.337    1872.2885 
  597200    299.04949   -1161.7912    6407.4815    11634.424    1934.7841 
  597300     298.0531   -1168.0279    6434.9914    11634.411    1936.6758 
  597400     300.7097   -1165.8317    6375.9863    11634.356    1908.5841 
  597500    299.52383   -1163.9619    6399.4632    11634.368    1890.3212 
  597600    294.60535   -1169.1006    6509.6918    11634.383    1923.9531 
  597700    299.84609   -1166.1847    6394.7384    11634.305    1849.7679 
  597800    298.32569   -1158.3545     6419.286    11634.202    1855.7377 
  597900    298.06071     -1165.67    6432.3049    11634.245    1917.2648 
  598000    298.11429   -1158.2128    6423.7385     11634.28    1896.4334 
  598100    300.69546   -1158.2485      6368.57    11634.219    1838.1215 
  598200    297.94373   -1159.5939    6428.7125    11634.229    1810.1796 
  598300    299.26263   -1164.9772    6405.9169    11634.227    1850.8748 
  598400    301.81793   -1163.7633     6350.104    11634.218    1807.1385 
  598500    294.27488   -1159.1882    6506.6283    11634.171    1876.0563 
  598600    300.59022   -1162.6867    6375.2363    11634.198    1884.6917 
  598700     299.0221   -1161.2048    6407.3091    11634.253    1847.1309 
  598800    299.76303   -1161.1596    6391.3117    11634.129    1759.3896 
  598900    298.65245   -1161.8924    6415.8344    11634.193    1871.5342 
  599000    299.86025   -1164.3424    6392.4886      11634.2    1898.7294 
  599100    298.39654   -1163.7176    6423.1751    11634.242    1873.4479 
  599200    299.03609   -1172.3844    6418.2757    11634.339    1917.0214 
  599300    301.42708   -1165.8742    6360.7184    11634.371    1857.8906 
  599400    299.65979   -1163.1449     6395.606    11634.233    1840.3264 
  599500    298.35114   -1166.6913    6427.1899    11634.313    1900.1834 
  599600    297.29208   -1164.6509    6447.8701    11634.408    1980.9699 
  599700    299.70936   -1169.5352    6401.0172    11634.313    1866.5754 
  599800    301.22938   -1166.5473    6365.6402    11634.396     1848.643 
  599900    296.65906   -1169.6307    6466.4614    11634.496    1908.8422 
  600000    301.60557   -1163.9428    6355.0691    11634.466    1904.4102 
Loop time of 278.395 on 8 procs for 300000 steps with 7168 atoms

Pair  time (%) = 137.293 (49.3159)
Bond  time (%) = 81.0074 (29.098)
Neigh time (%) = 19.5136 (7.00931)
Comm  time (%) = 30.3249 (10.8928)
Outpt time (%) = 0.512011 (0.183916)
Other time (%) = 9.74406 (3.50009)

Nlocal:    896 ave 898 max 895 min
Histogram: 4 0 0 1 0 0 2 0 0 1
Nghost:    2843.12 ave 2849 max 2837 min
Histogram: 1 0 1 0 2 1 0 2 0 1
Neighs:    23671.4 ave 23939 max 23457 min
Histogram: 2 2 0 0 0 0 2 0 0 2

Total # of neighbors = 189371
Ave neighs/atom = 26.4189
Ave special neighs/atom = 157.056
Neighbor list builds = 3040
Dangerous builds = 0
# −−−−−−−−−−−−−− Flux calculation in nve −−−−−−−−−−−−−−−
reset_timestep  0
compute         PE all pe/atom
compute         KE all ke/atom

variable        CX atom (vx*(c_KE+c_PE))
compute         Jcx all reduce sum v_CX

variable        CZ atom (vz*(c_KE+c_PE))
compute         Jcz all reduce sum v_CZ

variable        CY atom (vy*(c_KE+c_PE))
compute         Jcy all reduce sum v_CY

compute         SA all stress/atom virial

variable        VX atom -(c_SA[1]*vx+c_SA[4]*vy+c_SA[5]*vz)*1.4593e-5
compute         Jvx all reduce sum v_VX

variable        VZ atom -(c_SA[3]*vz+c_SA[6]*vy+c_SA[5]*vx)*1.4593e-5
compute         Jvz all reduce sum v_VZ

variable        VY atom -(c_SA[2]*vy+c_SA[6]*vz+c_SA[4]*vx)*1.4593e-5
compute         Jvy all reduce sum v_VY

variable        Jx equal (c_Jcx+c_Jvx)/vol
variable        Jz equal (c_Jcz+c_Jvz)/vol
variable        Jy equal (c_Jcy+c_Jvy)/vol

fix             JJTx all ave/correlate $s $p $d                 v_Jx type auto file J0Jt_tx.dat ave running
fix             JJTx all ave/correlate 5 $p $d                 v_Jx type auto file J0Jt_tx.dat ave running
fix             JJTx all ave/correlate 5 20000 $d                 v_Jx type auto file J0Jt_tx.dat ave running
fix             JJTx all ave/correlate 5 20000 100000                 v_Jx type auto file J0Jt_tx.dat ave running

fix             JJTz all ave/correlate $s $p $d                 v_Jz type auto file J0Jt_tz.dat ave running
fix             JJTz all ave/correlate 5 $p $d                 v_Jz type auto file J0Jt_tz.dat ave running
fix             JJTz all ave/correlate 5 20000 $d                 v_Jz type auto file J0Jt_tz.dat ave running
fix             JJTz all ave/correlate 5 20000 100000                 v_Jz type auto file J0Jt_tz.dat ave running

fix             JJTy all ave/correlate $s $p $d                 v_Jy type auto file J0Jt_ty.dat ave running
fix             JJTy all ave/correlate 5 $p $d                 v_Jy type auto file J0Jt_ty.dat ave running
fix             JJTy all ave/correlate 5 20000 $d                 v_Jy type auto file J0Jt_ty.dat ave running
fix             JJTy all ave/correlate 5 20000 100000                 v_Jy type auto file J0Jt_ty.dat ave running

run             1000000
Memory usage per processor = 13.8919 Mbytes
Step Temp E_pair E_mol TotEng Press 
       0    301.60557   -1163.9428    6355.0691    11634.466    1904.4102 
     100    297.95381   -1170.2265     6439.304    11634.403    1903.5635 
     200    299.27766   -1174.0763    6414.8895    11634.421     1934.032 
     300    297.82328   -1163.5984    6435.4822    11634.421    1866.5587 
     400    301.50778   -1169.6421    6362.7225    11634.331    1880.0443 
     500    299.39782    -1160.652    6398.7857    11634.309    1876.0114 
     600    300.38971    -1169.086    6386.0811     11634.36    1918.5688 
     700    300.59875   -1168.3281    6380.8807    11634.384    1902.0108 
     800     295.4099   -1164.4834    6487.7946     11634.29    1820.3051 
     900    299.05779   -1165.2057    6410.5399    11634.245    1845.3001 
    1000     297.8968    -1165.634    6435.8133    11634.287    1830.2056 
    1100    301.48221   -1169.8359    6363.4494    11634.318    1902.2769 
    1200    298.32284   -1161.3495    6422.4341    11634.294    1913.6636 
    1300    298.20344   -1165.0386    6428.6752    11634.296    1909.5531 
    1400    299.62964   -1164.3339    6397.4471    11634.241    1854.6722 
    1500    301.33932   -1164.0227    6360.6098    11634.239     1876.512 
    1600      299.528   -1161.2554     6396.521    11634.222    1934.0398 
    1700    296.96218   -1161.1709    6451.1824    11634.153     1885.694 
    1800    297.44097   -1166.5894    6446.5064    11634.287    1886.1302 
    1900    301.17538   -1163.9466    6364.0795    11634.283    1929.7031 
    2000      294.878   -1166.1914    6500.8822    11634.307    1891.9063 
    2100    297.80134     -1163.89    6436.1548    11634.333    1892.0826 
    2200    303.90773   -1160.5276    6302.3038    11634.299    1922.7355 
    2300    295.66455   -1165.9765    6483.8195    11634.262    1951.8524 
    2400    298.32239   -1164.6981    6425.8392    11634.341    1893.6419 
    2500    302.70705    -1167.756     6335.254     11634.37    1965.2957 
    2600    299.38239   -1170.3956    6408.9531    11634.403    1917.7891 
    2700    301.12365   -1168.0621    6369.4776     11634.46     1867.463 
    2800    300.42497    -1162.153    6378.4554    11634.421    1935.2911 
    2900    297.69171   -1168.1683    6442.8976    11634.456    1961.0457 
    3000     300.6317   -1173.7402    6385.5835    11634.378    1976.4558 
    3100     298.3157   -1165.9125    6427.2545    11634.399    1998.8487 
    3200    300.90251   -1169.2515    6375.3969    11634.466    1940.2141 
    3300    300.50102   -1164.0171    6378.7498    11634.476    1911.6197 
    3400    296.99036   -1168.8683    6458.6659    11634.541    1952.7062 
    3500    301.59418   -1166.6996     6358.071    11634.468    1939.0537 
    3600    295.69514   -1166.4075    6483.6747     11634.34    1940.6381 
    3700    300.30726   -1159.2163    6378.0817    11634.469    1905.4113 
    3800    298.89008    -1168.684    6417.7544    11634.398    1936.3075 
    3900    296.70632   -1163.9964    6459.7065    11634.385    1912.0063 
    4000    299.95998   -1165.5175    6391.7462    11634.413    1896.4863 
    4100    299.52499   -1166.4936     6401.954    11634.352    1932.9857 
    4200    297.40616   -1167.5533    6448.2347    11634.308    1904.1909 
    4300    300.77949   -1167.6466    6376.2716    11634.317    1926.0238 
    4400    295.14989   -1163.7837    6492.6393     11634.28    1946.1898 
    4500    303.04288   -1166.0515    6326.2067    11634.201    1847.6331 
    4600    298.59265   -1155.4002    6410.6901    11634.264    1918.6321 
    4700    298.25207   -1159.9442    6422.3733    11634.127    1908.3556 
    4800    299.35866   -1156.2441    6395.0241    11634.118    1940.4796 
    4900    298.64789   -1161.9695    6416.0597    11634.244    1933.1454 
    5000    299.45201   -1161.2403    6398.2236    11634.316    1842.7195 
    5100    300.14987   -1162.0297    6384.1537    11634.365    1934.6142 
    5200    295.77936   -1167.3386    6482.7696    11634.303    1972.1765 
    5300    299.06453   -1169.1808    6414.4371    11634.311    1955.2776 
    5400    301.28519   -1163.7302    6361.5947     11634.36    1966.8664 
    5500    296.40869   -1160.7678    6462.8555    11634.405    1986.2373 
    5600    297.86374   -1161.2397    6432.1396    11634.302    1906.0731 
    5700    296.57241   -1163.0094    6461.5289    11634.334    1970.2385 
    5800    302.09859   -1162.0214    6342.5626    11634.414    1943.1304 
    5900     299.7182   -1159.0113    6390.3864    11634.395    1924.6106 
    6000     301.9395   -1164.3399    6348.1994    11634.334    1874.5662 
    6100    297.45483   -1168.6038      6448.41    11634.472    1923.9961 
    6200    299.43514   -1172.0302    6409.5196    11634.462    1924.5412 
    6300    298.02862   -1177.0767    6444.6528      11634.5    1920.7971 
    6400    300.93093   -1167.1513    6372.6818    11634.458    1903.2453 
    6500    295.81824   -1162.0777    6476.8783    11634.503    1938.3655 
    6600    303.26071   -1165.3867    6321.1338    11634.447    1860.4711 
    6700     303.2704   -1167.9624    6323.4078    11634.352    1866.4104 
    6800     296.2231   -1165.0346    6471.1293    11634.447     1867.954 
    6900    297.50318   -1169.1349    6447.8325    11634.396    1864.0568 
    7000    300.13501   -1171.1407    6393.5923    11634.376    1895.1279 
    7100    297.37403    -1171.198    6452.6745    11634.416    1883.3575 
    7200    298.79381   -1167.0156     6418.129    11634.385    1862.1282 
    7300    297.01083   -1163.5778    6452.7404    11634.343    1897.3977 
    7400    298.80233    -1162.262    6413.0741    11634.265    1877.5108 
    7500    300.44304   -1164.3968    6380.1533    11634.261     1907.538 
    7600    300.93781   -1163.5287    6368.6699    11634.216    1920.9193 
    7700    298.35018   -1154.2812    6414.7276     11634.24    1925.0864 
    7800    302.22784   -1160.3704    6337.9308    11634.194    1884.9971 
    7900    300.20599    -1161.495    6382.2596    11634.205     1897.535 
    8000    302.30451   -1164.7747    6340.6978    11634.195    1824.2572 
    8100    296.04792   -1165.0548    6474.6455      11634.2    1858.2412 
    8200    295.58565   -1161.0165    6480.5468    11634.264    1887.0648 
    8300    300.80404   -1161.5927     6369.629    11634.253     1868.165 
    8400    299.76068   -1161.7481    6392.0276    11634.207    1875.4408 
    8500    299.79159   -1163.2092    6392.8614     11634.24    1955.3508 
    8600    298.26652   -1159.2079    6421.4605    11634.259    1893.1599 
    8700    298.17342   -1160.7272    6424.9632    11634.254    1834.6178 
    8800    299.94362   -1164.3225    6390.7887    11634.302    1861.7872 
    8900    299.50595   -1168.8482    6404.6768    11634.314    1901.1013 
    9000    302.27341   -1166.3727    6343.1312    11634.366    1857.9679 
    9100    299.06302   -1164.3608    6409.7149    11634.377    1908.9676 
    9200    300.72267    -1162.089    6372.0163    11634.406    1906.9195 
    9300    297.60191   -1162.5795    6439.1453    11634.374    1911.9852 
    9400    300.07377    -1167.563    6391.3597    11634.412     1887.808 
    9500     300.5148   -1164.2333    6378.5227    11634.327    1839.8706 
    9600    298.79989   -1167.0338     6417.982    11634.349    1849.3485 
    9700    299.68525   -1173.0138    6405.1199    11634.422    1878.9265 
    9800    298.54386   -1167.7922    6424.2832    11634.423    1889.0919 
    9900    298.62833   -1166.2534    6420.8161    11634.299    1854.5798 
   10000    297.78962   -1160.9554    6433.5002    11634.363    1859.3378 
Loop time of 1408.22 on 8 procs for 1000000 steps with 7168 atoms

Pair  time (%) = 564.731 (40.1024)
Bond  time (%) = 297.352 (21.1154)
Neigh time (%) = 65.2033 (4.63018)
Comm  time (%) = 108.071 (7.6743)
Outpt time (%) = 0.00359637 (0.000255383)
Other time (%) = 372.861 (26.4774)

Nlocal:    896 ave 902 max 892 min
Histogram: 1 1 1 1 1 1 0 1 0 1
Nghost:    2845.12 ave 2855 max 2838 min
Histogram: 2 1 0 0 1 2 0 1 0 1
Neighs:    23627.4 ave 23799 max 23386 min
Histogram: 2 0 0 1 0 0 1 1 0 3

Total # of neighbors = 189019
Ave neighs/atom = 26.3698
Ave special neighs/atom = 157.056
Neighbor list builds = 10133
Dangerous builds = 0
