LAMMPS (11 Jun 2012)
# Initialization
atom_style      full
units           real
variable        T equal 300
variable        dt equal 1.0
variable        seed equal 123456
variable        radius equal 0.5
variable        sizet equal 4
variable        sizeb equal -4
variable        p equal 20000    # correlation length
variable        s equal 5        # sample interval
variable        d equal $p*$s    # dump interval
variable        d equal 20000*$s    variable        d equal 20000*5    
# convert from LAMMPS real units to SI
variable        kB equal 1.3806504e-23    # [J/K] Boltzmann
variable        kCal2J equal 4186.0/6.02214e23
variable        A2m equal 1.0e-10
variable        fs2s equal 1.0e-15
variable        convert equal ${kCal2J}*${kCal2J}/${fs2s}/${A2m}
variable        convert equal 6.9510174124148567155e-21*${kCal2J}/${fs2s}/${A2m}
variable        convert equal 6.9510174124148567155e-21*6.9510174124148567155e-21/${fs2s}/${A2m}
variable        convert equal 6.9510174124148567155e-21*6.9510174124148567155e-21/1.0000000000000000777e-15/${A2m}
variable        convert equal 6.9510174124148567155e-21*6.9510174124148567155e-21/1.0000000000000000777e-15/1.0000000000000000364e-10
variable        b_eq equal 10.0/3.0

# setup problem
dimension       3
boundary        p p p
neighbor        2    bin
pair_style      lj/cut 10.0
bond_style      morse
read_data       lammps.data
  9 = max bonds/atom
  orthogonal box = (0 0 0) to (80 80 80)
  2 by 2 by 2 MPI processor grid
  7168 atoms
  33696 bonds
  10 = max # of 1-2 neighbors
  86 = max # of 1-3 neighbors
  824 = max # of 1-4 neighbors
  164 = max # of special neighbors
pair_coeff      1 1 0.000 3.500
pair_coeff      2 2 0.000 3.500
pair_coeff      1 2 0.105 3.500
bond_coeff      1 10 1.8 ${b_eq}
bond_coeff      1 10 1.8 3.3333333333333334814
bond_coeff      2 5 0.805 7.4536
bond_coeff      3 10 1.8 ${b_eq}
bond_coeff      3 10 1.8 3.3333333333333334814
bond_coeff      4 5 0.805 7.4536
velocity        all create $T ${seed} mom yes rot yes dist gaussian
velocity        all create 300 ${seed} mom yes rot yes dist gaussian
velocity        all create 300 123456 mom yes rot yes dist gaussian
timestep        ${dt}
timestep        1
thermo          100
dump            T1 all cfg 600000 *.cfg id type xs ys zs
dump            T2 all xyz 10000 traj.xyz
#dump_modify    1 element Cu
# −−−−−−−−−−−−− Equilibration and thermalisation −−−−−−−−−−−−−−−−
fix             NVT all nvt temp $T $T 10
fix             NVT all nvt temp 300 $T 10
fix             NVT all nvt temp 300 300 10
run             300000
Memory usage per processor = 11.5453 Mbytes
Step Temp E_pair E_mol TotEng Press 
       0          300   -906.89526 0.00012694983    5502.1446    343.62551 
     100    242.16577   -934.50814    7064.6572    11303.649    2200.3285 
     200    295.08034   -992.06732    10009.101    15320.972     1234.722 
     300    302.07634    -990.3221    8522.5408    13985.616    591.40062 
     400    299.30699   -966.99701    6388.0764    11815.314    858.70324 
     500    298.69727   -949.62848     5601.813    11033.393    1260.6881 
     600    299.53042   -947.27917    5670.9767    11122.705    1315.5049 
     700    299.54574   -959.11471    6532.5122    11972.733    1266.1881 
     800    297.31698   -970.48115    7152.5522    12533.792    1121.0704 
     900    303.64111   -970.63732    6994.9579    12511.147    1057.9889 
    1000    299.69013   -967.57565    6618.9519    12053.796    1118.0515 
    1100    302.10205   -964.29868    6421.5502    11911.198    1337.4435 
    1200    297.47011    -962.2226    6200.6628    11593.433    1243.7679 
    1300    301.47337   -965.27925    6380.8645    11856.101    1193.2437 
    1400    299.96109   -974.02607    6584.6507    12018.833    1245.8832 
    1500    303.54309   -978.76721    6939.8035    12445.769    1389.0286 
    1600    298.00075   -979.11304    6694.2556    12081.471     1363.181 
    1700    302.07576   -980.70376    6336.3906    11809.072    1356.4801 
    1800     299.2936   -985.63977     6466.947    11875.256    1470.3259 
    1900    302.66671   -990.99105    6507.8915     11982.91    1411.4063 
    2000    300.70367    -998.1542     6469.745    11895.663    1505.1557 
    2100    297.57279   -1005.8609    6455.8458    11807.171    1612.8665 
    2200    303.65275   -1017.1303    6252.1296    11722.075    1511.2115 
    2300    300.12438   -1032.3542    6446.6062    11825.949    1573.8621 
    2400    300.82732   -1048.6896    6436.8495    11814.874    1448.7043 
    2500     299.7356    -1063.699    6404.8694    11744.561    1332.8242 
    2600    302.23655   -1083.8769    6482.5462    11855.489    1457.2005 
    2700    300.95435   -1094.6492    6327.4825    11662.261    1424.0941 
    2800    296.36859   -1105.5087    6460.9451    11686.896    1565.2645 
    2900    301.89734   -1109.4391    6186.9915    11527.126    1605.3179 
    3000    296.65312   -1106.6297    6124.1375    11355.046    1710.3021 
    3100    304.79272   -1081.1079    6305.2132    11735.534    1785.3922 
    3200    299.95712    -1072.113    6388.4316    11724.442    1765.6538 
    3300    305.07342   -1069.7077    6260.5678    11708.286    1772.9834 
    3400    303.80392   -1071.9366    6280.9886    11699.357    1779.3757 
    3500    300.66603   -1090.4401    6401.9651    11734.794    1657.4939 
    3600    298.46671   -1130.9186    6521.8619    11767.227     1640.502 
    3700    298.94939   -1124.9684    6332.8366    11594.463    1712.5531 
    3800    302.82157   -1127.5421    6216.3911    11558.167    1740.1377 
    3900    304.34875   -1125.4561    6255.9642    11632.452    1710.7287 
    4000    300.25249   -1119.4243    6263.7126    11558.722    1634.2984 
    4100    308.76051   -1114.6531    6408.8662    11890.408    1715.2776 
    4200    298.89328   -1101.5937    6434.5789    11718.381    1674.7672 
    4300    297.14025   -1098.0608    6318.5769    11568.462    1627.0026 
    4400    302.71484   -1089.1384    6473.8079    11851.708    1746.1118 
    4500    296.67288   -1082.2451    6344.4635    11600.179    1609.1382 
    4600    303.93353   -1082.7979    6371.9188    11782.195    1533.4555 
    4700    299.96579    -1086.075    6646.8159     11969.05    1662.3829 
    4800    298.22856   -1087.3092    6585.1889    11869.075    1627.4631 
    4900    301.38199   -1093.4524    6429.6251    11774.736    1602.8327 
    5000      294.369   -1104.9163    6307.0291    11490.855    1637.5558 
    5100    300.58026   -1109.9033    6258.0289    11569.562    1650.1564 
    5200    299.89426   -1117.7679    6334.2165    11623.229     1635.461 
    5300     296.0018   -1128.5939    6489.0357    11684.066    1751.1377 
    5400    297.75476   -1138.5623    6443.0921    11665.603      1801.42 
    5500    299.89931   -1147.7602    6190.0816     11449.21     1790.711 
    5600    295.80298   -1148.9252    6080.1021    11250.554     1767.118 
    5700    300.38538   -1140.4053    6266.7639    11543.631    1804.9948 
    5800    299.07757   -1133.8245    6447.2641    11702.773    1872.7526 
    5900    302.27151   -1129.9177    6281.5342    11609.184    1859.3801 
    6000    296.07113   -1138.5306    6210.4059    11396.981    1847.9929 
    6100     300.7341   -1150.4097     6225.496    11499.809    1913.8548 
    6200     304.1109   -1156.2968    6374.1544     11714.72    1842.8662 
    6300     298.5212   -1164.7996    6315.3276    11527.975    1688.4028 
    6400    295.46491   -1162.9171     6337.693     11486.93    1814.3622 
    6500    302.72452   -1144.8764    6273.6638    11596.032    1706.2977 
    6600    295.66921   -1151.1515     6379.854    11545.222    1771.6747 
    6700    303.83217   -1144.1547    6285.2061     11631.96    1851.9187 
    6800    295.26778   -1152.4212    6307.8825    11463.404    1808.1293 
    6900     301.3952   -1140.6459    6291.1095    11589.309    1826.7483 
    7000    304.76766   -1143.6774    6386.3183    11753.534     1893.655 
    7100    298.31904   -1135.4894     6332.181     11569.82    1818.4638 
    7200    297.09172   -1130.9331     6322.058    11538.034    1694.0287 
    7300    299.68944   -1122.9213    6402.7415    11682.225    1785.8012 
    7400    295.66839   -1110.9696    6378.7063    11584.238    1693.4962 
    7500    304.53767    -1106.196    6461.3023    11861.086    1714.8368 
    7600    296.21204    -1101.963    6340.9695    11567.122    1729.2171 
    7700    300.67628   -1098.7595    6462.0907    11786.819    1763.4207 
    7800    297.97878   -1097.6385     6428.749     11696.97    1694.6759 
    7900    298.88277   -1099.0974    6460.4854     11746.56    1739.0945 
    8000    299.76532   -1102.0744    6384.9081     11686.86    1700.0408 
    8100    300.70774   -1104.8691     6356.447    11675.737    1720.4366 
    8200    301.36905   -1110.3043    6410.5483    11738.531    1772.7709 
    8300    301.18529   -1118.3658    6421.4432    11737.439      1760.34 
    8400    301.68329   -1115.5685    6493.5429    11822.975    1693.2239 
    8500    297.68383   -1121.5732    6420.9525    11658.938    1725.9352 
    8600    299.80094   -1125.6705    6319.3293    11598.446    1751.7669 
    8700    303.39941    -1130.344    6359.0399    11710.359    1719.7361 
    8800    299.83795   -1131.6275    6453.9068    11727.857     1740.395 
    8900    296.25849    -1133.236    6252.4985    11448.371    1745.0582 
    9000    301.07048   -1125.4155     6343.078    11649.571    1769.5142 
    9100    300.46851   -1119.5928    6309.6125    11609.068    1790.2496 
    9200    295.96489   -1125.6559    6298.5414    11495.721     1873.417 
    9300    303.78509   -1129.7492    6380.5646    11740.718    1842.0733 
    9400    298.62438   -1132.4432    6325.1604    11572.369    1754.5396 
    9500    303.95211   -1140.3607    6390.6098    11743.719    1845.2447 
    9600     298.4718   -1145.1216    6392.3849    11623.655    1836.0092 
    9700    300.74398   -1148.7554    6303.5452    11579.723    1776.6985 
    9800    300.04466   -1148.9797    6367.8413    11628.855     1837.584 
    9900    294.28184   -1143.1818     6329.725    11473.423    1810.4578 
   10000    303.51097   -1139.8134     6381.356    11725.589    1806.6702 
   10100    295.43753   -1139.5571    6381.1895    11553.202    1777.9663 
   10200    299.55467    -1137.052    6394.7287    11657.202    1795.9684 
   10300    302.33757   -1138.2796    6378.1707    11698.869    1747.5977 
   10400    300.01343   -1135.7507    6331.2622    11604.838    1737.0928 
   10500    302.69678   -1134.3013    6434.8664    11767.217    1815.0476 
   10600    301.75669   -1134.4847     6400.363    11712.447    1721.4139 
   10700    301.14576   -1141.5047    6471.9672     11763.98    1730.9804 
   10800    300.59652   -1138.7005       6420.1    11703.183    1763.7483 
   10900    299.63652    -1142.584    6394.8885    11653.579    1844.2735 
   11000    304.85182   -1140.7628    6320.7871    11692.716    1768.1533 
   11100    296.95405   -1144.4817    6414.5489    11614.035    1823.9686 
   11200     296.9653   -1139.9282    6376.6659    11580.946    1792.7417 
   11300    300.81596   -1145.8244    6339.1764    11619.824    1713.6121 
   11400    293.84254   -1140.9383    6343.3274    11479.884    1753.9095 
   11500    301.93522   -1141.8434    6409.5602      11718.1    1829.3981 
   11600    298.29272   -1145.9176    6358.3343    11584.983     1760.796 
   11700    302.38108   -1148.0317    6389.0239      11700.9    1826.5853 
   11800    295.61536   -1151.6379    6237.1113    11400.842    1710.4405 
   11900    300.79326   -1149.7672    6350.0218    11626.241    1751.9795 
   12000    295.71906   -1152.9578    6364.6875    11529.314    1821.1715 
   12100      303.237   -1152.8401    6342.0879    11667.441    1859.0458 
   12200    301.51637   -1152.6428    6380.3864    11669.178     1878.069 
   12300    296.70066   -1152.0827    6312.2222    11498.694     1792.049 
   12400    298.32192   -1149.6545    6338.0104    11561.546    1774.3029 
   12500    300.72433   -1138.9346     6367.923    11653.502     1794.209 
   12600    296.79434   -1132.7825    6266.0619    11473.835    1806.0921 
   12700    301.71635   -1134.3247    6342.6849    11654.067    1809.9015 
   12800    298.16337   -1122.9294    6441.6191    11688.493    1786.6599 
   12900    303.90288   -1135.4647    6346.2449    11703.199    1805.1072 
   13000     297.3446     -1133.23    6452.8074    11671.889    1827.8285 
   13100    298.70035   -1135.9929    6418.4578    11663.739    1795.5406 
   13200     300.5214   -1137.0335    6390.0218    11673.167    1808.5482 
   13300    300.53605   -1133.5185    6349.5164    11636.489    1785.5692 
   13400    300.64407   -1133.5582    6430.9255    11720.167    1801.6029 
   13500    297.44903   -1128.7169    6497.3284    11723.154    1799.4232 
   13600    303.49457   -1124.4111    6381.5894    11740.874    1828.7487 
   13700    300.92589   -1127.4784    6453.8336    11755.175    1824.1485 
   13800    300.73086   -1130.1374    6311.3924    11605.908     1832.613 
   13900    299.05075    -1123.187    6408.0958    11673.669    1751.0761 
   14000    300.01835    -1123.264    6539.1077    11825.275     1731.568 
   14100    295.88654   -1127.1143    6502.8426     11696.89    1766.9519 
   14200    296.47045   -1126.5917    6448.5413    11655.586    1816.4372 
   14300    304.74024   -1128.1083    6469.4517    11851.651    1840.6225 
   14400    297.62735   -1121.5068    6434.7714    11671.616    1766.0066 
   14500    296.82429    -1130.599    6410.9465    11621.543    1778.1363 
   14600     299.9444   -1139.3797    6385.3622    11653.834    1810.2607 
   14700    299.75109   -1138.1043    6334.7802    11600.398    1765.1663 
   14800    300.31367   -1146.5287    6407.3417    11676.554    1835.7327 
   14900    301.55629   -1155.0274    6341.3288    11628.589    1762.5601 
   15000    293.65445   -1149.1086    6375.1417     11499.51    1723.8734 
   15100    302.12573   -1149.8883    6438.4192    11742.984    1858.9234 
   15200     296.9336   -1155.6065    6400.5426    11588.467    1848.4824 
   15300    297.76191   -1155.9392    6410.5647    11615.852    1847.8408 
   15400     301.0609   -1152.0391    6310.9391    11590.604    1813.8837 
   15500    296.73256   -1153.8486    6359.2844    11544.672    1811.2672 
   15600    296.39634   -1153.9157    6392.7077    11570.845    1818.6725 
   15700    295.05556   -1154.0272    6490.9775     11640.36     1775.717 
   15800    301.57699   -1153.2314    6349.6079    11639.106    1792.2546 
   15900    299.83029   -1160.1531    6352.3395      11597.6    1819.5813 
   16000    300.88923   -1159.6184    6461.6981    11730.116    1847.0851 
   16100    302.20088   -1156.8212    6474.7991    11774.036    1847.1109 
   16200    297.86735   -1158.4521    6253.1334     11458.16    1778.6207 
   16300    302.52859    -1155.153    6286.6161    11594.522    1830.4218 
   16400    301.53844   -1153.1819    6435.9532    11724.677    1810.1585 
   16500    299.58459   -1147.5345    6542.4462    11795.077     1848.652 
   16600    296.95925   -1140.4365    6536.2312    11739.873    1846.0085 
   16700    300.86481    -1135.221    6378.5276    11670.822    1780.3941 
   16800    300.57166   -1134.3304    6331.2309    11618.153    1805.4792 
   16900     301.2822   -1132.5524    6474.1352    11778.015    1873.0199 
   17000    302.75043   -1132.4631    6493.7518    11829.087    1787.5031 
   17100    294.01072   -1127.4887    6513.2424    11666.842    1764.2511 
   17200    305.01164   -1131.3241     6546.528     11931.31    1876.0796 
   17300    302.54176   -1125.4252    6425.6794    11763.595     1858.041 
   17400    300.13108   -1124.9623    6251.9968    11538.875     1750.179 
   17500     295.4763   -1118.0308    6410.0881    11604.455    1862.6653 
   17600    295.27231   -1129.4984    6467.9857    11646.527    1871.7577 
   17700    302.85504   -1129.0804    6398.2956    11739.248    1814.0342 
   17800    299.46098   -1126.7737    6481.5593     11752.31    1862.0527 
   17900    299.99577   -1132.6625    6379.2752    11655.562    1829.9831 
   18000     301.1041   -1132.3381    6396.9472    11697.236    1823.9469 
   18100     303.0199   -1129.0597    6422.3625    11766.858    1865.9015 
   18200    299.89714   -1126.5436    6407.0127    11687.311    1880.0529 
   18300    299.99405   -1126.8296    6356.7066     11638.79    1890.8971 
   18400    293.12225   -1130.7453    6388.6319    11519.994    1880.4724 
   18500    303.88222   -1124.4798    6401.3195    11768.817    1892.9627 
   18600    299.38982   -1132.0488    6442.5846     11706.54    1830.8512 
   18700     303.4797   -1131.2382    6491.3128    11843.453    1862.8396 
   18800    300.36719   -1125.6334    6435.1468    11726.398     1885.268 
   18900    303.63914   -1131.1357    6305.2676    11660.916    1809.8958 
   19000    299.24184   -1129.4042    6480.5204    11743.959    1858.2437 
   19100    301.58188   -1124.3778    6461.7752    11780.232    1870.1886 
   19200    302.25426   -1127.3123    6369.4263    11699.312    1841.1216 
   19300    304.38563   -1129.6566    6406.8247      11779.9    1844.7644 
   19400    298.91895   -1127.5503    6329.5967    11587.991     1797.713 
   19500    300.99088   -1130.3653    6495.6828    11795.526     1861.397 
   19600    302.33674   -1127.7983    6496.1656    11827.328      1893.04 
   19700    304.46998   -1134.1735     6345.316    11715.676     1830.882 
   19800    298.92112   -1132.9879    6474.3147    11727.318    1846.5861 
   19900    305.27827   -1135.2905    6536.3133    11922.825    1849.4778 
   20000    298.27829   -1135.4763    6416.0469    11652.829    1818.0748 
   20100    301.00226   -1145.1693    6366.2041    11651.486    1871.1963 
   20200    299.20472   -1145.9496    6469.6276    11715.728    1878.1404 
   20300    297.98267   -1150.9836     6410.159    11625.118    1798.8891 
   20400    302.87567   -1154.1855    6413.7835    11730.072    1909.7962 
   20500    301.97776    -1148.078    6382.5009    11685.714    1888.6516 
   20600    297.42528   -1141.3277    6359.1617    11571.869    1834.0658 
   20700    300.78886   -1137.3194    6351.2691    11639.842    1918.5173 
   20800    296.51255   -1140.2741    6328.7234    11522.985    1891.1856 
   20900    297.04068   -1139.8691     6396.442    11602.391    1849.5445 
   21000    304.72024   -1138.5405    6436.6273    11807.967    1937.7537 
   21100     295.6385   -1147.4572    6314.7739     11483.18    1895.2766 
   21200    300.82081   -1150.9241     6376.476    11652.127    1945.7719 
   21300    298.78483   -1151.2092    6477.4841    11709.354    1963.7244 
   21400    297.64306   -1151.3494    6483.7961    11691.134    1899.7259 
   21500    301.23834   -1153.2886    6314.2978    11596.504    1884.5242 
   21600    296.21918   -1151.7027    6308.6047     11485.17    1901.5233 
   21700    294.94817   -1145.3135    6489.9483     11645.75    1895.9053 
   21800    299.02647   -1140.8816    6448.9475    11696.308    1892.2899 
   21900     299.5632   -1141.4857    6391.0287    11649.251    1970.7651 
   22000    298.37243   -1138.0638     6412.276    11648.481    1915.0855 
   22100    307.15372   -1136.6498     6434.757    11859.975    1816.8016 
   22200    301.14415   -1133.4188     6556.604    11856.668    1856.8331 
   22300    298.99382   -1133.7808    6424.9721    11678.736    1767.7214 
   22400    300.82802   -1135.2382    6421.1328    11712.624    1752.1933 
   22500    297.85608   -1133.5294    6561.8084    11791.517    1886.5603 
   22600    297.45417   -1131.3325    6347.7989    11571.118    1838.7385 
   22700    299.90415   -1133.5452    6390.9733     11664.42    1822.4247 
   22800    303.30986   -1134.6271    6484.2087    11829.331     1883.691 
   22900    295.30488    -1130.282    6461.9611    11640.415    1867.1781 
   23000    302.88008   -1134.1432    6417.0547     11753.48     1834.399 
   23100    298.93495   -1133.2686    6487.5142    11740.532    1850.3229 
   23200    300.41907   -1137.1867    6347.7315    11628.537    1804.9883 
   23300      300.083   -1133.9766     6325.064      11601.9     1803.142 
   23400    299.77826   -1135.9364    6496.2604    11764.627    1860.9434 
   23500    300.19056   -1139.1663      6494.88    11768.824    1849.0635 
   23600     303.3709   -1133.0768    6307.3955    11655.373     1768.107 
   23700    296.89299   -1140.3946    6396.6345    11598.903    1808.5284 
   23800    300.82855   -1138.0945    6471.2565    11759.902    1844.9079 
   23900    299.72832   -1134.4493    6363.6563    11632.443    1846.6893 
   24000     300.4537    -1142.475    6390.9778    11667.235    1889.4648 
   24100    298.84648   -1141.6387    6461.7003    11704.458    1943.6912 
   24200    299.45586   -1139.7556    6512.5112    11770.171    1876.8014 
   24300    299.84915   -1147.7194    6395.7742    11653.872    1782.6347 
   24400    300.05378    -1141.766    6411.0885    11679.511     1768.145 
   24500    300.84944   -1143.7685    6481.2067    11764.625    1883.9755 
   24600    299.79818   -1150.3913    6382.4274    11636.764    1814.3633 
   24700    300.21047   -1143.0738    6482.5336    11752.996    1804.2656 
   24800     296.9745   -1146.5767    6380.6732    11578.501    1784.5195 
   24900    303.80061   -1145.3888     6383.219    11728.064    1837.9269 
   25000     298.8162   -1147.5072    6431.3086    11667.551    1826.7608 
   25100    305.28347   -1147.5177    6434.0616    11808.457    1944.9775 
   25200     297.7422   -1156.0291    6296.6829    11501.459    1905.3991 
   25300    294.93219   -1154.3258    6364.7163    11511.164    1863.6611 
   25400    298.07558   -1158.5384    6441.9509     11651.34    1917.8967 
   25500    304.01247   -1152.9555    6345.6603    11687.465    1888.1532 
   25600    297.40774   -1154.7369    6482.9935    11681.917    1979.8401 
   25700     311.4807   -1149.4772    6408.9409    11913.771     2000.365 
   25800    299.67656   -1142.5342    6359.2538     11618.85    1933.3076 
   25900    298.18832   -1149.6139     6383.445    11604.167    1824.2611 
   26000    300.60747   -1148.4982    6473.4099    11746.929     1869.411 
   26100    297.86511   -1155.3327    6391.1058    11599.204     1908.975 
   26200    294.62865   -1153.3198    6292.8963    11433.866    1845.8496 
   26300     299.3159   -1157.1002    6476.4811    11713.806    1928.1506 
   26400    300.04548   -1147.5457    6308.9889    11571.455     1852.815 
   26500    297.30811    -1151.294    6464.2251    11664.463    1915.9722 
   26600    304.75573   -1150.1193    6427.8319    11788.351     1860.696 
   26700    301.23234   -1147.6658     6435.356    11723.057    1876.5731 
   26800    296.73111   -1148.5726    6385.2991    11575.931    1810.5492 
   26900    303.34239   -1140.5948    6441.6068    11781.457    1874.1224 
   27000    300.10727   -1150.7151    6462.0795    11722.696    1896.2679 
   27100    299.28808   -1151.8201    6321.0088    11563.019    1786.1179 
   27200    302.64793   -1153.0149    6436.6516    11749.245    1821.8367 
   27300    299.98132    -1155.199    6613.5567    11866.998    1893.6715 
   27400    301.89356    -1155.731    6459.5279     11753.29    1921.4537 
   27500    297.07951   -1158.1669    6286.6222    11475.103    1865.4584 
   27600    299.19078    -1162.195    6471.2247    11700.782     1941.306 
   27700    303.01976   -1159.1283    6477.4479    11791.872    1915.7687 
   27800    304.68337   -1165.6233    6325.2924    11668.762    1867.2104 
   27900    298.57057   -1160.6783    6462.5945    11680.418    1896.5568 
   28000    300.53198   -1160.8927    6459.1604    11718.672    1908.3197 
   28100    300.13598   -1169.3042    6407.4834    11650.124    1874.4315 
   28200     298.8363   -1172.7536    6333.5072    11544.933     1851.171 
   28300    300.26986   -1170.9944    6420.0486    11663.859    1931.7203 
   28400    296.81244   -1162.0492    6457.2054    11636.099    1948.6252 
   28500    304.40323   -1157.5535    6375.5195    11721.074    1881.1947 
   28600    297.78582   -1167.1431    6387.7903    11582.384    1907.2043 
   28700    300.37147   -1165.6602    6408.9649     11660.28    1949.2882 
   28800    300.58416   -1159.2198    6350.7703     11613.07    1865.0286 
   28900    301.50344   -1163.5598    6383.4641    11661.063    1866.9194 
   29000     297.1721   -1158.4962    6375.8583    11565.988    1921.3842 
   29100    298.88907   -1161.9453    6432.0741    11655.435    1884.0009 
   29200    298.48401    -1160.115    6367.8298    11584.368     1846.323 
   29300    301.07866   -1157.0602    6294.7334    11569.757    1897.3178 
   29400    301.62607   -1148.1475    6401.2181    11696.849    1819.0996 
   29500    299.37763   -1146.9132    6588.2983    11837.129    1902.5267 
   29600    299.28907   -1145.5836    6483.8316      11732.1    1877.5467 
   29700    302.00717   -1147.8901     6336.146    11640.176    1904.1175 
   29800    298.88328   -1142.1329    6336.1126    11579.162    1942.5529 
   29900    300.24466   -1144.2185    6415.9073    11685.955    1932.3427 
   30000      301.081    -1138.059    6637.6539    11931.728    1957.2183 
   30100    302.96038   -1139.1992      6435.98    11769.065    1811.1879 
   30200    300.10463   -1138.7924    6403.3694    11675.852    1835.3974 
   30300    297.20664   -1140.2905    6466.2965     11675.37    1932.2228 
   30400    302.98275   -1135.8409    6404.8664    11741.787    1894.8528 
   30500    300.41922   -1142.2101    6441.7099    11717.496    1847.5175 
   30600     303.5794   -1144.1593    6482.2211     11823.57    1917.6536 
   30700     298.2671   -1147.7532    6495.3267    11719.592    1964.0529 
   30800     298.7291   -1140.6121     6345.714    11586.991    1872.0304 
   30900    301.71184   -1149.2956     6387.999    11684.314    1928.1482 
   31000    301.77797   -1143.0188      6463.08    11767.084    1914.4288 
   31100    296.80922   -1150.1481    6407.0136    11597.739    1894.6751 
   31200    296.37735   -1150.0303    6390.8275    11572.445     1996.339 
   31300    304.78542   -1152.3153      6402.96    11761.917    2004.5945 
   31400    304.31393    -1158.969    6487.3137    11829.545    1937.7564 
   31500    297.28024   -1156.4262     6380.675    11575.185    1910.5802 
   31600    305.90491   -1152.1735    6405.1607    11788.176    1953.9379 
   31700     298.2427   -1157.9404    6345.9399    11559.497    1842.4882 
   31800    300.13612   -1153.8432    6415.5311    11673.636     1896.125 
   31900    305.77076   -1163.6893    6367.7474    11736.381    1940.5393 
   32000    299.56526   -1154.3576    6359.6555     11605.05    1901.5119 
   32100    302.83247   -1154.8621    6448.2004    11762.889    2004.9906 
   32200    298.30024   -1154.9595    6369.2159    11586.983     1982.866 
   32300    298.83693   -1157.6356    6367.4544    11594.011    1882.9216 
   32400     303.8193   -1154.6707     6421.265    11757.228    1897.7571 
   32500     300.9864   -1152.1888    6492.5961     11770.52     1976.614 
   32600    299.36976   -1153.1396    6400.7505    11643.186    1954.3569 
   32700    296.29705   -1148.5858    6414.1843     11595.53    1914.7187 
   32800    300.80658   -1150.4442    6326.9932     11602.82    1908.7385 
   32900    296.28293   -1148.6276    6465.4146    11646.417    1955.6632 
   33000    299.59244    -1149.421    6488.2161    11739.128    1884.5512 
   33100    303.87543   -1141.5571    6445.0764    11795.352    1903.0496 
   33200    299.67544   -1142.2833    6387.5096    11647.332    1885.4457 
   33300    300.95655   -1140.2875    6378.5937    11667.781    1881.5739 
   33400    297.52566    -1136.805    6529.3761     11748.75    1882.6076 
   33500    302.04093   -1134.4176     6495.282    11813.505    1900.6582 
   33600    302.17905   -1143.9369    6354.1305    11665.785    1929.3586 
   33700    298.49704    -1138.342    6401.0562    11639.646     1904.348 
   33800     295.7639   -1138.8939    6527.4969    11707.145      1917.84 
   33900    302.03174    -1140.305    6500.2356    11812.375    1897.3556 
   34000    302.48546   -1138.9235    6439.6609    11762.875     1867.085 
   34100    307.57718   -1144.7123    6367.7974        11794    1908.3469 
   34200    297.46218   -1145.6602    6445.3024    11654.465     1933.344 
   34300    301.92917   -1150.1775    6350.1517    11650.228    1850.2831 
   34400    297.67938   -1151.6311    6444.5455    11652.378      1922.87 
   34500    299.95651    -1153.348    6365.8642    11620.627    1901.3011 
   34600    299.16694    -1148.831    6409.0592    11651.471    1875.8446 
   34700    295.16282   -1157.7164    6471.7704    11619.755    1893.8152 
   34800    303.02495   -1163.7569     6388.079    11697.985    1868.4004 
   34900    297.92892   -1159.1863    6316.1518     11521.76     1782.356 
   35000    300.83885   -1158.6895    6496.1274    11764.398    1925.4304 
   35100    303.58001   -1169.4039     6390.221    11706.338    1876.2949 
   35200    300.29236    -1163.362    6426.1581    11678.082    1914.6967 
   35300    296.45794   -1167.5891    6397.1119    11562.892    1879.5001 
   35400    298.17866   -1170.1254    6406.9186    11606.923    1887.4978 
   35500    299.45423    -1170.494    6383.5009    11610.387    1906.4925 
   35600    302.17509   -1167.2654    6356.2694    11644.511      1954.16 
   35700    292.61983   -1165.7949    6376.6126    11462.191     1919.032 
   35800    297.26908   -1171.5641    6367.8445    11546.978    1905.6428 
   35900    304.37374   -1168.8856    6366.4509    11700.043    1905.0928 
   36000    299.82294   -1167.6825    6434.2236    11671.798     1939.544 
   36100    295.95552   -1165.0578    6442.9786    11600.556    1931.9321 
   36200    303.32129   -1162.4114    6334.9542    11652.537    1894.0592 
   36300    294.91093   -1155.7533    6399.9334      11544.5    1882.8259 
   36400     302.6336   -1155.5358     6450.551    11760.318    1898.9737 
   36500    294.59227   -1155.8608    6351.3964    11489.048    1891.6584 
   36600    302.06973   -1152.4899    6336.0239     11636.79    1876.6734 
   36700     301.7944   -1145.2925    6538.9813    11841.063    1902.9847 
   36800    295.85524   -1148.7871    6457.9543     11629.66    1839.6658 
   36900    298.59535   -1146.2717    6472.6896    11705.449    2004.9842 
   37000    302.24684   -1138.6579    6346.7182      11665.1    1856.9051 
   37100    300.38519   -1133.5696     6461.958    11745.657    1896.5934 
   37200    302.93474   -1137.9955    6505.6048    11839.345    1916.7555 
   37300     297.5301   -1138.1783    6467.1256    11685.221    1884.6551 
   37400    304.96107   -1136.7884    6484.1059    11862.343    1887.2608 
   37500    295.51951    -1137.766    6526.7902    11702.345    1817.1582 
   37600    301.01546   -1138.2509    6517.5081    11809.991    1786.7658 
   37700    295.23635   -1133.4696    6289.8944    11463.697    1715.5736 
   37800    300.11502   -1135.0466    6473.6127    11750.063    1874.8966 
   37900    300.31451   -1138.3925    6435.1171    11712.483    1826.2215 
   38000    300.38526   -1140.3299    6458.8743    11735.815    1852.1606 
   38100    299.00578   -1144.0293    6503.6337    11747.404    1885.2152 
   38200    303.28769   -1145.2779    6462.1303    11796.128    1808.5332 
   38300    296.75854   -1150.3105    6461.2354    11650.716    1882.6496 
   38400    303.79506   -1149.6306    6348.9532    11689.438    1856.2871 
   38500    294.38641   -1147.9926    6416.4579    11557.579    1840.8853 
   38600     298.7001   -1148.3264    6449.5275     11682.47    1875.7319 
   38700     302.7601   -1149.5315     6381.565    11700.039    1896.0192 
   38800    299.71671   -1151.2902    6329.0785    11580.776    1873.2962 
   38900    299.82353   -1157.2289    6412.9232    11660.964    1854.7927 
   39000    298.32611   -1160.8119    6369.9057    11582.373     1825.307 
   39100    303.24646   -1165.6765    6328.3313     11641.05    1922.5304 
   39200    303.45898   -1166.0359    6543.7369    11860.636     1933.105 
   39300    295.21278   -1160.9023    6474.9096    11620.775     1861.776 
   39400    302.58807   -1164.2045    6307.8818    11608.007    1920.2599 
   39500    296.92444   -1153.5072    6291.7939    11481.622    1870.2352 
   39600    300.66737   -1153.6616     6454.999    11724.635    1935.7907 
   39700    299.60267   -1161.5329    6409.5882    11648.607    2019.4486 
   39800    298.06249   -1168.2329    6331.0629    11530.478    1901.5671 
   39900    302.57062   -1163.6793    6417.3244    11717.602    1899.9811 
   40000    297.73596   -1166.1219    6415.0985    11609.648    1907.6779 
   40100    298.23193   -1161.5558    6423.4162    11633.128    1908.1833 
   40200    296.41041   -1164.6583    6574.8366    11742.532    1940.2787 
   40300    300.65435   -1162.7386    6313.3438    11573.624    1856.7799 
   40400    297.69667    -1154.892    6349.7898     11554.73    1901.8148 
   40500    297.58702   -1159.5648    6388.4116    11586.337    1822.2386 
   40600    299.39389   -1154.4662    6414.9962    11656.621    1887.8913 
   40700    302.91858   -1154.0996    6431.7808    11749.072    1907.5843 
   40800    300.79347   -1157.5633    6325.9988    11594.426    1786.0304 
   40900      297.641   -1154.8869    6502.8468    11706.603    1911.8108 
   41000    300.64765   -1150.3609    6370.2405    11642.755    1865.9818 
   41100    297.42256   -1154.2057    6458.2704    11658.042    1898.2579 
   41200    304.17046   -1151.1618     6316.993    11663.966    1855.7742 
   41300     300.2162   -1148.0578    6422.3277    11687.928    1915.7719 
   41400    298.25958   -1143.5529    6440.1353    11668.441    1825.0185 
   41500    298.36112    -1138.515    6387.1375     11622.65    1888.3532 
   41600    304.36015   -1144.7224    6386.6692    11744.134    1872.8791 
   41700    297.48213   -1139.6266    6487.6587    11703.281    1848.8097 
   41800    301.52704   -1148.2973    6362.5311    11655.896    1828.3305 
   41900    300.47839    -1153.907    6426.2778    11691.631    1865.6839 
   42000    302.00588   -1151.0004    6411.5412    11712.433    1779.5561 
   42100    293.59958   -1147.0393    6447.5462    11572.812    1778.9999 
   42200    302.01959   -1146.7144    6460.0674    11765.538    1850.5315 
   42300    293.85195   -1145.6891    6388.5235     11520.53    1813.4982 
   42400    299.11696   -1143.8447    6424.9376    11671.268    1844.6577 
   42500    300.33798   -1142.4021    6351.1904    11625.049    1902.9141 
   42600    289.11643   -1143.5169    6395.2221    11428.234    1919.2732 
   42700    298.56475    -1145.454    6440.2432    11673.167    1855.5592 
   42800    296.99307    -1147.096    6422.0561    11619.761    1866.5173 
   42900    300.34242   -1148.3049    6305.7823    11573.832    1871.7244 
   43000    302.32903   -1147.9107     6397.768    11708.653    1885.6783 
   43100    296.23666    -1150.746    6417.2558    11595.151    1836.1907 
   43200    304.46551   -1154.2309    6469.3595    11819.567    1916.3821 
   43300    297.05665   -1153.7067     6419.159    11611.612    1807.6072 
   43400    302.01071   -1148.4542    6430.7809    11734.322    1865.0999 
   43500    297.00777   -1146.7527    6384.4298    11582.793     1908.947 
   43600    301.64177   -1148.5015    6322.7259    11618.338    1883.8545 
   43700    301.03609    -1147.328    6402.9837     11686.83    1855.7025 
   43800    296.92604   -1148.2391    6467.6147    11662.745    1887.0278 
   43900    305.27846   -1153.9269    6340.3635    11708.243    1900.7711 
   44000    295.76753   -1153.6967    6368.1546    11533.077    1924.7865 
   44100    301.14499   -1156.2279    6304.1469     11581.42    1848.0774 
   44200    296.54279   -1146.5111     6465.291    11653.962    1892.4678 
   44300    301.89297   -1149.2146    6376.6929    11676.958    1843.9533 
   44400    296.69154    -1158.823    6311.1506    11490.687    1917.3327 
   44500     299.5806   -1142.7776    6468.6599    11725.962     1924.846 
   44600    299.15647   -1146.1222    6343.6166    11588.513    1846.3686 
   44700    302.91094   -1150.6455    6440.8041    11761.386    1971.6664 
   44800    295.09032   -1146.6398    6408.1006    11565.613    1880.6447 
   44900    302.49264   -1147.9078    6400.1848    11714.568    1931.6504 
   45000    294.02532   -1150.3115    6487.9006    11618.989    1913.9878 
   45100    301.48311   -1152.5855    6340.9121    11629.051     1869.162 
   45200    301.19643   -1151.7259    6440.1287    11723.002    1892.9902 
   45300    300.55553   -1150.4546    6484.2909    11754.744     1872.512 
   45400    292.73569   -1147.2925    6372.9032     11479.46    1835.7753 
   45500     302.0332   -1148.6508    6431.8808    11735.706    1865.9494 
   45600    299.51716   -1150.3016     6416.987     11665.41    1907.7855 
   45700    302.37309    -1148.195    6460.1217    11771.664    1867.5321 
   45800     301.0878   -1150.6141    6499.5504    11781.215    1920.4382 
   45900    302.73904   -1153.4084    6404.5894    11718.736    1894.0414 
   46000    305.30898   -1147.3696    6397.2763    11772.365    1863.1501 
   46100    298.24496   -1152.4574    6433.3724    11652.461    1846.5554 
   46200    300.64632   -1154.6937    6425.7112    11693.865    1872.1027 
   46300    302.68262   -1151.5608    6376.1449    11690.934    1874.9873 
   46400     296.6391   -1151.6025    6381.3892    11567.026    1801.8688 
   46500    298.99142   -1156.8911    6394.1944    11624.796    1903.5409 
   46600     303.0137    -1156.899    6487.0996    11803.623    1861.8493 
   46700    298.27404   -1161.2795    6408.8663    11619.754    1842.5143 
   46800    299.42453   -1163.6624    6332.1627    11565.246    1906.6651 
   46900    300.46344   -1155.9696    6392.7376    11655.708    1894.0753 
   47000    297.33599   -1160.3461    6436.0506    11627.832     1848.445 
   47100    300.91422   -1162.3162    6374.5933    11640.848    1869.5574 
   47200    296.31151   -1159.1329    6310.6359    11481.744     1884.319 
   47300    300.89706   -1162.8327    6354.4922    11619.863     1874.902 
   47400    305.70483   -1166.6541     6462.159     11826.42    1990.4258 
   47500    301.16358   -1168.6031    6416.7686    11682.063    1819.3946 
   47600    303.47931    -1166.079    6476.4408    11793.732    1793.0552 
   47700    299.46805   -1170.8819     6361.134    11587.928    1839.6048 
   47800    300.40179   -1165.1516    6356.4757    11608.948    1908.8925 
   47900    297.67862   -1158.7375    6288.4413    11489.151    1785.3932 
   48000    297.78186   -1161.5773     6525.715     11725.79    1850.0999 
   48100    300.31813   -1163.2998    6479.0445    11731.581     1902.542 
   48200    299.29403   -1163.4561     6254.582    11485.084    1866.8855 
   48300    297.65578    -1162.462    6390.4194    11586.916    1945.2336 
   48400    305.05227   -1162.3435    6420.4091    11775.039    2000.4364 
   48500    297.90746    -1161.594    6326.0278     11528.77    1898.8547 
   48600    300.83098   -1165.3633    6474.8339    11736.263    1931.4492 
   48700    299.86081   -1157.0599    6519.0527    11768.059    1966.2404 
   48800    297.96716   -1163.8463    6355.4281    11557.193    1889.7674 
   48900    301.54347   -1156.4272    6423.7916    11709.378     1914.958 
   49000    305.18979   -1155.7028    6349.7859    11713.995      1893.33 
   49100    297.59455   -1154.7888    6471.5501    11674.412    1946.5621 
   49200    303.79431   -1146.5767    6382.8467    11726.369    1862.0611 
   49300    297.28774   -1151.2122    6408.5144    11608.399    1816.1402 
   49400    302.43521   -1152.7918    6494.4203    11802.693    1900.1707 
   49500    300.84027   -1148.5117    6459.7368    11738.216    1894.6736 
   49600    292.94613   -1145.2574    6470.1839    11583.271    1852.1318 
   49700    300.54187   -1150.3304    6414.7799    11685.065    1847.2515 
   49800    302.63086   -1149.5894    6391.7612    11707.416    1820.5333 
   49900    298.23903   -1144.4375    6433.6247    11660.607    1840.5779 
   50000    302.66395   -1147.5248     6394.171    11712.597    1788.8096 
   50100    302.23637   -1151.3212    6374.1226    11679.618    1825.6668 
   50200    297.22985   -1146.0085    6356.3848    11560.236    1862.2939 
   50300    297.49642   -1145.0891    6496.3122    11706.778    1876.4126 
   50400    303.32792   -1150.1331    6443.1639    11773.166    1909.0574 
   50500    297.75315    -1146.882    6351.6495    11565.807    1811.2509 
   50600    296.77797   -1150.6908    6452.3413    11641.856     1860.394 
   50700    304.09803    -1154.704    6521.2008    11863.085    1869.5495 
   50800    296.46032   -1153.4009    6388.2009     11568.22    1822.0033 
   50900      303.257   -1159.8604    6420.5855    11739.346    1863.2711 
   51000    297.35648   -1155.7516    6289.0196    11485.833     1864.418 
   51100    304.51998   -1155.6249    6443.3434    11793.321    1879.5356 
   51200    297.45236   -1155.1559    6506.9634    11706.421    1870.8452 
   51300    298.77261   -1152.3737    6446.4087    11676.853    1842.0014 
   51400    301.07169    -1159.778    6264.7737     11536.93    1824.7934 
   51500    297.89013   -1159.5971    6371.5473    11575.916    1851.7437 
   51600    299.14493   -1158.7217    6367.9649    11600.016    1820.0489 
   51700    298.46824   -1157.2822    6563.5376    11782.571    1913.9169 
   51800    297.60488   -1162.5112    6443.4163    11638.777     1858.426 
   51900    301.46896    -1159.739    6343.1377    11623.821    1836.5258 
   52000    297.69343   -1154.0983    6308.2583    11513.923    1766.1416 
   52100    300.07151   -1152.0749    6568.8949    11827.387    1857.5809 
   52200    297.92082   -1153.1549    6445.9469    11657.413    1823.5472 
   52300    297.84657   -1154.4991    6334.7694    11543.305    1845.6516 
   52400    300.67437   -1154.0725    6388.1568    11657.531    1769.0666 
   52500    294.32982    -1148.689     6425.103    11564.319    1798.5421 
   52600    302.14251   -1152.5993    6373.2235    11675.435    1824.9331 
   52700     296.9012   -1152.2229    6483.9333    11674.549    1818.1023 
   52800    304.44636   -1144.8709    6418.6523    11777.811    1870.7569 
   52900    295.30031    -1147.239    6277.7501    11439.149    1820.5675 
   53000    297.61949    -1148.855     6471.616    11680.945    1877.9678 
   53100    302.89865   -1153.6998    6488.0385    11805.304    1861.1499 
   53200    300.37809   -1153.9444    6438.1824    11701.355    1894.3847 
   53300    300.52351   -1154.0054    6350.3035    11616.522    1850.4667 
   53400    299.79151   -1150.7584    6325.0438    11578.871    1856.0125 
   53500    297.50518   -1154.7292    6401.4996    11602.512    1866.2434 
   53600    305.39602   -1160.7334    6479.8382    11843.422    1892.9073 
   53700    299.08912   -1157.2156    6404.4168    11636.781    1839.1003 
   53800    299.98844   -1163.9463    6398.4094    11643.256    1822.9524 
   53900    305.33447   -1163.6791    6400.4434    11759.767    1841.3557 
   54000    297.76648   -1162.1366    6435.5924     11634.78    1855.2366 
   54100     304.4489   -1162.8869    6384.9146    11726.111    1880.7302 
   54200    302.58279   -1157.0766    6406.1351    11713.276    1851.6553 
   54300    299.23891   -1159.3731    6402.0975    11635.505    1862.4601 
   54400    297.70935   -1162.0518    6382.7195    11580.771    1855.9462 
   54500    305.43104   -1159.4543    6514.3126    11879.924     1917.374 
   54600    294.52397   -1162.1497    6352.5133    11482.416    1848.1279 
   54700    302.60055   -1160.0052    6366.2388     11670.83    1884.0052 
   54800    301.61997   -1163.9387    6351.6776    11631.387    1842.1902 
   54900    301.79503   -1162.2961    6479.9874    11765.079    1898.8218 
   55000    302.87825   -1158.0243    6441.4977    11754.003     1842.856 
   55100    300.15748   -1154.7351     6468.617    11726.286    1896.9031 
   55200    301.36597   -1154.4121    6254.7678    11538.577    1848.3169 
   55300    298.39177   -1151.7291    6375.1977    11598.151    1892.2462 
   55400    301.97703    -1148.564    6570.8974    11873.609    1894.5676 
   55500    303.09374   -1146.8604      6380.63    11708.902    1810.8419 
   55600    295.84137   -1142.3031    6409.5498    11587.444    1921.2428 
   55700    296.43917   -1146.0489    6367.2001    11554.119    1867.2046 
   55800    301.95108   -1142.2304    6543.2743    11851.765    1915.9521 
   55900    304.64596   -1144.0987    6451.1747    11815.369    1849.9614 
   56000    300.10423   -1142.7718      6444.51    11713.004    1839.6611 
   56100    301.97766   -1144.2559    6380.3802    11687.414    1788.4871 
   56200    303.29122   -1144.2856    6384.4337      11719.5    1812.9751 
   56300    300.25252   -1140.8533    6522.5083    11796.089    1893.0727 
   56400    297.17621   -1137.4156    6467.1858    11678.484    1875.9919 
   56500    302.02475   -1150.4072    6379.4716     11681.36    1829.8011 
   56600    302.80513   -1148.3315    6406.8354    11727.471    1930.9784 
   56700    296.88083   -1145.0131    6487.3192     11684.71    1957.4874 
   56800    298.69538    -1151.494    6395.1744    11624.849    1906.1335 
   56900    300.35402   -1153.4617    6343.2453    11606.386    1916.1853 
   57000    299.95531    -1151.758    6443.2968    11699.624    1975.7384 
   57100    302.35919   -1151.9456    6460.6323    11768.127    1933.1115 
   57200    292.07322   -1153.4473    6460.6811     11546.93    1866.7894 
   57300    302.57597   -1159.6644    6364.7538    11669.161    1838.1732 
   57400    299.75684   -1159.4217    6301.3759    11545.799    1851.4749 
   57500    308.68738   -1154.0747    6536.6964    11977.254    1889.5281 
   57600    298.36601   -1161.7865    6594.1038    11806.449    1957.2748 
   57700    298.06583   -1159.7341    6389.3029    11597.288    1884.4716 
   57800    305.91004   -1154.9437    6363.4434    11743.798    1916.4664 
   57900    300.32697   -1146.7204    6298.1849    11567.489    1980.2843 
   58000    300.39309   -1152.9056    6373.3738    11637.906    1951.9566 
   58100     298.2134   -1155.9702    6405.9543    11620.856    1922.9675 
   58200    299.21002   -1159.3275    6474.5098    11707.345    1896.7618 
   58300    300.79952   -1156.0966    6476.9368     11746.96    1900.9019 
   58400    301.05492   -1156.6457     6388.486    11663.417    1877.9282 
   58500    294.83341   -1158.4221    6363.2096    11503.451    1882.6529 
   58600     302.6264    -1146.227    6431.1052    11750.027    1914.5906 
   58700    298.38469   -1149.1059    6529.0687    11754.494    1925.4149 
   58800    296.45228   -1143.7849    6448.6297    11638.093    1824.2347 
   58900    303.55185   -1145.9291    6372.5916    11711.582    1888.5114 
   59000    299.20175   -1147.1675    6279.8257    11524.644    1880.3068 
   59100    301.65004   -1142.2889    6449.7944    11751.796    1929.9954 
   59200     300.6091   -1146.6377    6396.1263    11671.541    1830.7178 
   59300    301.20482   -1141.2456    6484.2115    11777.745    1944.7509 
   59400    300.14525   -1144.6938    6404.1691    11671.618    1877.5225 
   59500    297.02808   -1140.9626    6427.0417    11631.628    1842.4654 
   59600    300.70023   -1143.6265    6434.7039    11715.076     1901.611 
   59700     295.8626   -1145.8589     6483.388     11658.18    1936.3104 
   59800    301.22667   -1144.8135    6532.1614    11822.593    1904.5808 
   59900    299.33345   -1145.1353    6382.0452     11631.71    1887.2516 
   60000    298.36641   -1147.1219    6456.3367    11683.355      1981.55 
   60100    304.95346   -1148.2433    6436.1525    11802.772    1925.9468 
   60200    300.63916   -1149.0888    6383.9158    11657.521    1914.0333 
   60300    300.97739   -1153.3535    6338.2458    11614.812    1900.0511 
   60400    297.09751   -1156.5973    6458.3114    11648.747    1863.4402 
   60500    302.40523   -1156.2681    6438.1748     11742.33    1862.1268 
   60600    296.13404   -1152.3339    6367.8012    11541.917    1835.3676 
   60700    305.57143   -1161.3596    6366.6529    11733.358    1860.4521 
   60800    298.69319   -1162.0228    6380.4296    11599.529     1856.788 
   60900    303.71054   -1157.2478    6373.1525    11704.214    1882.4599 
   61000     296.9746   -1164.2095    6356.4205    11536.618    1827.1018 
   61100    300.14071   -1157.2533    6433.6701    11688.462    1910.4642 
   61200    301.53745   -1160.2763    6460.7102    11742.319    1914.6701 
   61300    303.01074   -1158.1647    6423.0699    11738.265    1889.6259 
   61400    297.06822   -1160.5165    6383.7989    11569.689    1935.6019 
   61500    296.01654   -1158.8133    6303.7767    11468.903    1891.6695 
   61600    300.57063   -1158.3642    6401.0825    11663.949     1888.802 
   61700    296.36011   -1158.7935    6397.6991    11570.185    1840.3374 
   61800     299.9266   -1150.7101    6637.8643    11894.626    1940.8443 
   61900    305.19692   -1150.6843    6421.7016    11791.081    1911.2802 
   62000    296.86299   -1149.8454    6307.2928     11499.47    1890.3245 
   62100    300.74493   -1150.8526    6366.8815    11640.983    1926.2717 
   62200     302.1235   -1150.8966    6499.4164    11802.925    1966.3425 
   62300    296.02731   -1148.4541    6474.6976    11650.413    1905.8604 
   62400    301.96113   -1145.9992    6457.7174    11762.654    1921.0302 
   62500    298.89557   -1143.4462    6429.3068    11671.306    1897.9383 
   62600    303.08372   -1143.0065    6407.3153    11739.227    1867.3944 
   62700    297.32492   -1144.1537    6450.7983    11658.535    1829.0069 
   62800    298.78819   -1142.7594    6505.2558    11745.648    1872.0712 
   62900    299.49016   -1142.9221    6442.4817    11697.707    1817.8251 
   63000    304.19708   -1144.0285    6386.6807    11741.356    1829.4037 
   63100    305.57683    -1148.736    6395.1786    11774.623    1793.3722 
   63200    300.34189   -1148.2057     6499.375    11767.513    1832.5727 
   63300    300.72977   -1145.6146    6457.6766    11736.692    1837.3347 
   63400    302.46951   -1142.2965    6382.1582    11701.659    1790.5013 
   63500    298.35577   -1147.3644    6386.3058    11612.855    1850.6746 
   63600    301.71517   -1151.5122    6386.3535    11680.523    1868.9629 
   63700    294.09698   -1149.1346    6406.3237     11540.12    1840.0662 
   63800    303.01515    -1154.268    6476.2617    11795.447    1937.3588 
   63900    301.81105   -1153.5246     6499.456    11793.661    1934.9975 
   64000    296.42946   -1158.0394    6353.0705    11527.792    1958.1163 
   64100    300.01614   -1159.8624    6374.2504    11623.772    1908.1214 
   64200    303.86206   -1151.0516    6392.9713    11733.466    1853.2509 
   64300    297.54976   -1155.8735    6491.1448    11691.965     1869.517 
   64400    300.65776    -1153.395    6336.0306    11605.727    1876.6097 
   64500    299.64969   -1160.5103    6329.4638    11570.509    1902.3213 
   64600    303.28479   -1152.9547    6367.8637    11694.123    1867.0631 
   64700    300.18778   -1158.5295    6359.2334    11613.755    1878.2674 
   64800    297.98926   -1155.4667    6591.2818    11801.899    1915.1732 
   64900    300.82915   -1154.6895    6480.5909    11752.655    1821.6994 
   65000    298.60788   -1152.7847    6363.5662    11590.081    1912.9478 
   65100    299.86516   -1152.6949    6347.0548    11600.519    1886.1668 
   65200    302.03777   -1145.6666    6493.7102    11800.617    1909.4606 
   65300    298.70699   -1147.8261    6526.1725    11759.763     1967.837 
   65400    302.77587   -1149.9715     6328.078    11646.448    1883.2904 
   65500     296.0458     -1148.16    6388.3881    11564.792    1854.9376 
   65600    301.59778   -1144.6198    6450.4178    11748.972    1838.8894 
   65700    300.05485   -1148.5397    6462.9934    11724.665    1909.0852 
   65800     304.1017   -1143.2253    6454.4895     11807.93    1928.3679 
   65900    298.22782   -1146.5639     6348.813    11573.429    1849.8772 
   66000    294.58818   -1141.5299    6410.2614    11562.156    1892.9453 
   66100    299.38852   -1138.8718    6476.4537    11733.558    1897.6014 
   66200     302.3943   -1142.3447    6437.3274    11755.173    1842.3523 
   66300    303.49597   -1146.0141    6500.6025    11838.314     1971.979 
   66400    298.71927   -1146.4319    6411.6686    11646.916    1928.6635 
   66500    303.44072   -1150.9643    6353.5956    11685.177    1863.0022 
   66600    298.06763   -1149.3004    6472.6821    11691.139     1885.203 
   66700    296.81296   -1149.7725    6495.7946    11686.976    1975.5577 
   66800    295.94239   -1149.1045    6311.8393     11485.09    1888.6612 
   66900    301.62934   -1149.1464    6360.6849    11655.387    1908.0062 
   67000    296.78324   -1151.8937    6494.6921    11683.117    1896.8916 
   67100    296.85351   -1146.9425    6488.5203    11683.398    1842.9386 
   67200     302.6719   -1158.1573    6339.8464     11647.81    1846.8411 
   67300    298.91556   -1157.6165    6291.7144     11519.97    1881.6729 
   67400    308.35214    -1156.776    6468.5779    11899.272    2001.2441 
   67500    300.17521   -1159.5107    6595.2935    11848.566    1953.3096 
   67600    298.76939   -1164.9194    6448.3754    11666.205    1879.4774 
   67700    300.37992   -1160.2545    6314.6766    11571.578    1927.2862 
   67800     298.3996   -1160.3991    6377.6144    11592.065    1914.6506 
   67900    303.43797   -1153.6733    6413.7408    11742.554     1962.854 
   68000    301.02581   -1151.5675    6421.1976    11700.585     1935.794 
   68100    298.19424   -1155.0552    6434.9752    11650.382    1883.3503 
   68200    299.81748   -1162.6397    6382.6226    11625.123    1908.1257 
   68300    297.49312   -1157.2147    6439.9355    11638.205    1950.6755 
   68400    300.68666   -1161.3693    6376.3977    11638.738    1867.0157 
   68500     299.0427   -1155.8048    6470.6586    11703.442    1860.0792 
   68600    300.15658   -1152.9456    6451.4792    11710.918    1871.0682 
   68700    295.92435   -1150.9064    6377.9724    11549.036    1845.8205 
   68800    303.00867   -1143.3694     6491.427    11821.373    1897.2103 
   68900     299.3466   -1148.8248    6248.6469    11494.903    1845.7601 
   69000    299.16087   -1141.9489    6371.4461     11620.61    1850.7952 
   69100    302.76672   -1142.1216    6419.2298    11745.255    1811.2102 
   69200    297.07381   -1146.6845    6481.4113    11681.253    1801.8753 
   69300    303.43318   -1147.3644    6579.2531    11914.273    1912.6868 
   69400    299.73672   -1144.7187    6349.1255    11607.822    1881.3432 
   69500    302.45916   -1148.2068     6376.648    11690.017    1911.8836 
   69600    299.60841   -1146.7171    6523.2149    11777.172    1922.1577 
   69700    299.83474   -1143.3788    6488.9817    11751.112    1882.6914 
   69800    300.42424   -1150.2684    6380.8759     11648.71    1902.7222 
   69900    297.64251    -1145.333    6517.0221    11730.364     1912.929 
   70000     307.0968   -1148.9144    6390.8636    11802.601    1914.2262 
   70100    299.27133   -1150.9028     6398.382    11640.952    1906.9402 
   70200    298.03408   -1146.4126     6427.202     11647.83    1933.3162 
   70300    299.62784   -1147.6368    6394.6975     11648.15    1830.3652 
   70400    296.26441   -1154.5981    6347.9905    11522.627    1873.7452 
   70500    303.05754    -1156.125    6412.3336    11730.568    1929.3882 
   70600    300.02048   -1157.6893    6473.9457    11725.734    1880.7984 
   70700    297.09076   -1158.9461    6422.2468    11610.189    1845.7002 
   70800    302.76412   -1162.5331    6472.3294    11777.887    1916.2072 
   70900    300.16067   -1157.5388      6401.37    11656.303    1900.8381 
   71000    296.29968   -1157.8896    6383.1453    11555.244    1898.4945 
   71100    304.76398   -1156.8905    6393.5775    11747.502    1935.8388 
   71200    297.29158   -1149.7434    6304.9806    11506.416    1838.9365 
   71300    300.62977   -1154.6843     6385.557    11653.366    1861.5826 
   71400    300.07575   -1144.9688    6434.6972    11700.386    1917.5963 
   71500    301.17622   -1153.0323    6397.1813    11678.317     1936.016 
   71600    302.19009   -1156.2734    6363.1796    11662.734    1874.5816 
   71700    300.79191   -1154.0944    6446.7405    11718.604    1891.6259 
   71800    299.09789   -1150.5285    6456.4148    11695.654    1892.8539 
   71900    300.85925   -1153.6376     6383.459    11657.217    1881.9176 
   72000    298.90428   -1150.9854    6444.1958    11678.842    1908.7064 
   72100     296.3783   -1149.0459    6406.5342    11589.156     1894.862 
   72200    300.08349    -1149.856    6383.1487    11644.116    1889.2879 
   72300    300.65722   -1150.1706    6486.7014    11759.611    1938.8087 
   72400    301.45261   -1143.0538     6387.353    11684.372    1896.5624 
   72500    304.29568   -1147.3971    6471.0051    11824.418    1905.5538 
   72600    298.14742   -1148.9229    6519.4842    11740.023    1934.2836 
   72700    297.62647   -1140.9006    6441.6485    11659.081    1868.2209 
   72800    300.75275   -1140.7308    6375.1375    11659.528     1895.958 
   72900    296.61475   -1146.4152    6437.8935    11628.197    1918.0513 
   73000    299.15992   -1145.8978    6465.6264    11710.821     1848.861 
   73100      300.701   -1147.3973     6462.311    11738.929    1873.0262 
   73200    299.05809   -1149.7567     6449.419     11688.58    1911.4703 
   73300    299.04093   -1153.1249    6383.7714    11619.197    1889.8696 
   73400     306.1118   -1155.1659    6347.7983    11732.241    1898.8587 
   73500    303.33371   -1157.3977    6414.1224    11736.984      1930.59 
   73600    300.78926   -1154.5583    6462.2249    11733.568    1919.6644 
   73700    298.12251   -1152.7391      6409.66    11625.851    1951.5393 
   73800    297.18132   -1155.1228     6423.572    11617.272    1963.1842 
   73900    299.44666    -1160.768    6182.0684    11418.519    1895.7141 
   74000    297.81992   -1154.4926    6411.2924    11619.265    1945.1154 
   74100    298.56255   -1157.2291    6441.6911    11662.793    1876.5529 
   74200    302.44669   -1159.8458    6338.4754    11639.939    1938.8165 
   74300    299.45724     -1163.37    6285.4243    11519.499    1825.7603 
   74400    298.60432   -1165.7402    6320.9455    11534.428    1794.5378 
   74500    301.80197   -1152.6082    6512.0109    11806.939    1909.3097 
   74600    297.29341   -1147.7398    6458.3906    11661.868    1904.0626 
   74700    300.66589    -1158.601    6332.4118    11597.076    1862.8911 
   74800    296.05366   -1159.1244    6346.8942    11512.502    1880.6282 
   74900     303.2381   -1157.3712    6458.3856    11779.231    1949.3797 
   75000    301.70859   -1153.2815    6395.8761    11688.136     1909.085 
   75100    295.44529   -1151.8609    6445.5701    11605.444    1929.9805 
   75200     295.6767   -1153.2096    6403.1139    11566.583    1901.8158 
   75300    302.29635   -1153.5717    6387.7412    11692.267    1855.5284 
   75400    297.61791   -1149.3788     6384.854    11593.625    1815.0645 
   75500    301.83074   -1147.3568    6568.5199    11869.314    1956.3532 
   75600    297.66869   -1151.1843    6370.5567    11578.607    1858.3281 
   75700    303.02105   -1145.1003    6428.4367    11756.916    1891.5326 
   75800    298.44151   -1143.9233    6533.5933    11765.415    1977.3017 
   75900    306.42428   -1144.3304    6395.7569    11797.711    1912.9734 
   76000    297.27729   -1146.7234     6403.773    11607.923    1848.1685 
   76100     302.7301   -1146.6658    6606.2631    11926.961    1948.7102 
   76200    299.93956   -1146.0609    6430.3103    11691.998    1874.3671 
   76300    298.62998   -1149.3401    6392.6053    11623.037    1900.3766 
   76400    295.54286   -1151.5194    6454.2474    11616.548    1876.0502 
   76500    298.73191   -1151.1144    6472.1211    11702.956    1917.7806 
   76600    302.19942   -1151.7839    6345.8997    11650.143    1848.2491 
   76700    295.97021   -1159.1931    6479.3788    11643.135    1925.9559 
   76800    304.28785   -1157.7687    6498.8831    11841.757    1982.1579 
   76900    301.57146   -1162.0447    6408.3431     11688.91    1944.9937 
   77000    306.50535   -1156.4501     6271.893    11663.459    1878.1363 
   77100      297.278   -1158.8595    6435.0345    11627.063    1925.4609 
   77200    303.93648   -1154.1069     6478.651    11817.681    1903.0736 
   77300    297.10473   -1150.8258    6453.5741    11649.935    1953.2301 
   77400    297.64624   -1163.7174     6396.752     11591.79    1877.8794 
   77500    296.10481    -1163.451     6399.937    11562.311    1885.6215 
   77600    298.77202   -1166.1643    6430.9719    11647.613    1899.7741 
   77700     301.0334    -1155.625    6336.6777    11612.169    1885.6649 
   77800    301.23057   -1155.1757     6426.513    11706.666    1944.2113 
   77900    303.07939   -1158.7223    6286.3297    11602.434    1895.2436 
   78000    301.51784   -1159.9339      6368.95    11650.482    1901.9575 
   78100    301.55182   -1157.4892    6500.0675     11784.77    1956.4781 
   78200    296.83573   -1152.4667    6523.0912    11712.065    1982.3738 
   78300    303.96981   -1158.0996    6339.7021    11675.451    1887.9628 
   78400    296.20586   -1154.4015    6460.6519    11634.234    1925.1288 
   78500    304.59238   -1147.3602    6451.7773    11811.566    1945.6859 
   78600    299.16662   -1151.3869    6310.8141    11550.663     1839.076 
   78700    298.22594      -1149.9    6492.3251    11713.565    1916.6488 
   78800    302.99733   -1150.7731    6452.6642    11774.964    1865.4145 
   78900    303.71857   -1147.8262    6436.8349     11777.49    1824.3165 
   79000    297.90752   -1143.7998    6489.7916    11710.329    1862.9231 
   79100    304.44486   -1146.4917    6388.3864    11745.892    1852.4233 
   79200    295.68206   -1144.1846    6337.0499    11509.659    1829.5109 
   79300    300.34463   -1147.1015    6505.8399    11775.141    1887.4674 
   79400    301.19769   -1144.0434    6436.7527    11727.336    1834.4901 
   79500    291.49155   -1144.5973    6306.5034    11389.176    1737.0151 
   79600    297.14924   -1153.3975    6442.0501     11636.79     1817.046 
   79700     302.9865   -1147.1989    6488.6506    11814.293    1899.5383 
   79800    298.38228   -1150.5014    6368.5689    11592.547    1891.9599 
   79900    302.84231   -1141.9449    6381.5893    11709.406    1917.3701 
   80000     300.4807   -1148.1746    6370.0819    11641.216    1823.8043 
   80100    301.51462     -1148.75    6477.7782    11770.425    1906.6388 
   80200     298.1015   -1160.7359    6408.7325    11616.478    1844.0498 
   80300    305.28476   -1162.3563    6333.1707    11692.755    1822.3828 
   80400    295.63042   -1159.1605     6424.816    11581.346    1839.8993 
   80500    301.96413    -1154.837    6420.4311    11716.594     1929.862 
   80600    301.44689   -1157.6999    6337.0237    11619.274    1843.0133 
   80700    300.77636   -1157.8901    6370.1524    11637.888    1827.0973 
   80800    292.28139   -1156.7013    6424.2115    11511.654    1822.1711 
   80900    296.82035    -1159.705    6400.0652    11581.472    1875.9443 
   81000    297.25895   -1158.1286     6495.531    11687.884    1867.4821 
   81100    301.68595   -1159.3983    6402.1579    11687.817    1928.9804 
   81200    300.79541   -1159.5474    6375.8226    11642.308    1961.6717 
   81300    300.31633   -1159.7811     6409.959    11665.975    1964.5836 
   81400    304.20343   -1153.6152    6457.1477    11802.372    1986.6499 
   81500    303.17362   -1157.1988    6350.8072    11670.448    1925.3669 
   81600    300.48444   -1158.3787    6452.9437    11713.954    1983.2348 
   81700     297.6062   -1155.1112    6399.4598    11602.249    1949.2887 
   81800    299.96845   -1154.1899    6415.8541     11670.03    1907.5442 
   81900    304.49459    -1157.312     6449.287    11797.035    1993.7821 
   82000    297.58966   -1151.3346    6360.5131    11566.725    1881.2392 
   82100    299.84715   -1152.5847    6397.5626    11650.752    1912.2646 
   82200    303.16565   -1152.6996    6400.4605     11724.43    1873.3425 
   82300       298.72   -1148.4998    6425.1479    11658.343     1868.883 
   82400     299.8075   -1148.9636    6457.4102    11713.374    1884.0538 
   82500    296.09047   -1152.4218    6453.9187    11627.016    1888.1744 
   82600    297.92604   -1149.0953    6466.0441    11681.682    1890.0803 
   82700    298.80568   -1145.6963    6520.3784    11758.207    1881.8516 
   82800    304.72211   -1153.6044    6421.7836      11778.1      1875.12 
   82900    299.26973   -1157.2585    6471.9626    11708.143    1906.5866 
   83000    298.32926   -1155.1403    6403.2742    11621.481    1828.8238 
   83100    303.39296   -1154.4256     6374.907    11702.006    1807.6839 
   83200    296.44157   -1153.1872    6577.3798    11757.212      1910.19 
   83300    298.15413    -1154.372    6527.0269     11742.26    1870.0528 
   83400     300.9895   -1157.5433    6337.8666    11610.502    1817.8123 
   83500    299.13822   -1151.8411    6372.4088    11611.197    1887.0636 
   83600    303.91494    -1148.809    6430.0593    11773.927    1849.9366 
   83700    298.66085   -1147.1232    6461.2562    11694.564    1872.7467 
   83800     297.4441   -1151.3449    6431.8246    11634.916    2028.2341 
   83900    301.92293   -1151.9234     6231.933     11530.13     1960.975 
   84000    300.17895   -1153.6734    6307.1779    11566.367    1838.7775 
   84100    297.02189   -1157.4542    6449.9784    11637.941       1952.3 
   84200    300.33413    -1158.566    6370.1157    11627.728    1928.0795 
   84300    300.45879   -1157.1136    6533.1936    11794.921    1933.5542 
   84400    303.46458    -1156.181    6377.3115    11704.185    1938.0597 
   84500    297.41716   -1158.9198    6182.7878    11377.729    1914.5365 
   84600    303.02385   -1161.4827    6377.0408    11689.198    1901.0776 
   84700    298.14779   -1158.0939     6568.618    11779.994    1946.0825 
   84800    298.31315   -1153.3504    6377.3621    11597.015    1909.3297 
   84900    300.36883   -1154.9877    6350.3521    11612.284    1851.8872 
   85000    300.02031   -1157.7153    6354.2888    11606.047    1857.3445 
   85100    303.11913   -1158.6547    6401.0531    11718.074    1944.9498 
   85200    299.02855   -1155.4336    6440.5363    11673.389    1939.2475 
   85300     300.1808   -1154.4384    6383.8351    11642.299    1873.2419 
   85400     296.0405    -1153.082    6467.6237    11638.993    1940.4746 
   85500    303.63014    -1154.135    6433.1054    11765.562    1931.5285 
   85600    297.97889   -1155.3816    6486.8737    11697.354    1902.1785 
   85700    302.17599   -1148.9561    6410.4372    11717.007    1845.3263 
   85800    297.13958   -1149.7547    6478.8297    11677.006    1884.4192 
   85900    299.63657   -1157.2336    6371.5308    11615.573    1843.4431 
   86000    300.21382   -1150.2005    6332.3343    11595.741    1891.9746 
   86100    293.11034    -1147.534      6476.19    11590.509    1930.9708 
   86200    302.80625   -1151.7559     6422.091    11739.326     1861.227 
   86300    299.32831   -1147.6575    6404.8083    11651.841    1883.8687 
   86400    302.97304   -1156.7269    6342.6239    11658.451     1912.381 
   86500    298.66652   -1154.3732    6499.9929    11726.172    1928.4551 
   86600    299.72056   -1149.8269    6415.0465    11668.289    1883.5468 
   86700    302.06633   -1154.9953    6390.0788    11688.267    1940.6156 
   86800    297.51316   -1153.3361     6434.651    11637.227    1912.6173 
   86900    304.96576   -1149.0372    6474.1699    11840.258     1911.775 
   87000    298.15862   -1148.4859    6399.3371    11620.553    1917.1741 
   87100    297.70245   -1155.6534     6358.519    11562.822    1940.4665 
   87200    303.43917   -1155.3745    6403.0655    11730.203    1879.7044 
   87300    298.12715    -1153.129    6457.0536    11672.954    1958.0502 
   87400    295.74104   -1152.4427    6465.1473    11630.758    1974.1677 
   87500    302.23809   -1158.4701    6358.3017    11656.685    1896.4584 
   87600    303.42416   -1158.8851    6354.0396    11677.346    1920.0708 
   87700    296.78343   -1151.1199    6510.1415    11699.344    1932.9549 
   87800    301.50187   -1152.7348     6530.743    11819.133    1869.3147 
   87900    300.22059   -1151.2968    6317.5704    11580.026    1877.7041 
   88000    295.09603   -1155.9176    6333.5044    11481.861    1943.9247 
   88100    301.50132     -1155.74    6402.6883    11688.061    1956.9449 
   88200    303.68055    -1152.185    6506.4046    11841.888    1988.0132 
   88300    298.29364   -1154.6481    6421.3711    11639.309    1938.3888 
   88400    299.30657   -1155.8154    6364.2973    11602.707    1866.6236 
   88500    308.50528   -1154.8601    6421.5882     11857.47    1905.8609 
   88600    295.51902   -1161.4863    6448.3133    11600.138     1965.063 
   88700    302.01913   -1156.7225    6512.1048    11807.558    1935.1092 
   88800    298.57749   -1154.5642     6436.348    11660.434    1904.9994 
   88900    302.19145   -1150.3889    6425.9116    11731.379    1872.2322 
   89000    299.11725   -1151.1286    6411.9701    11651.023    1878.9344 
   89100    294.07999   -1149.7065    6490.8717    11623.733    1948.1838 
   89200     303.1278   -1152.0696    6357.1726    11680.963    1899.5984 
   89300    299.99914   -1155.3758    6442.7276    11696.373    1897.8935 
   89400    300.73989   -1151.3987    6520.3698    11793.817    1800.4758 
   89500     299.6237   -1156.9562    6571.0826    11815.127    1886.4866 
   89600    298.57154    -1158.096    6357.4742    11577.901    1853.3301 
   89700    305.84882    -1154.886    6347.7702    11726.875    1889.2256 
   89800    296.53334    -1155.272    6410.2535    11589.961    1902.6275 
   89900    298.02564   -1156.7544    6502.6923    11712.798    1952.4117 
   90000    302.39387    -1162.298    6510.8971     11808.78    1907.6222 
   90100    299.25955   -1164.2197    6389.7268    11618.728    1873.4396 
   90200    301.13177   -1159.5538    6375.9565    11649.621    1878.3118 
   90300    295.42142   -1163.5018    6497.7196    11645.443    1931.0849 
   90400    298.67214    -1164.918    6394.0811    11609.835    1951.1701 
   90500    302.10548   -1161.4666    6416.7747    11709.328    1962.2754 
   90600     301.9897   -1165.7111    6390.8605    11676.696    1917.8336 
   90700    298.16056   -1171.4852    6359.7699    11558.028    1922.1774 
   90800    300.74067   -1168.7865    6404.8191    11660.896    1919.2095 
   90900    297.92607   -1169.2741    6392.3168    11587.776    1951.8885 
   91000    295.46929   -1170.6283    6398.5042    11540.124     1935.892 
   91100    303.63727   -1169.4093    6335.5285    11652.863    1845.1156 
   91200    304.72539   -1168.5256    6481.3038    11822.769     1921.494 
   91300    296.88472   -1163.7677    6479.0247    11657.743    1965.0428 
   91400    301.38733    -1167.136    6294.5636    11566.106    1944.2106 
   91500    299.68009   -1158.0644    6325.6865    11569.828    1962.0275 
   91600     297.6302   -1163.6167    6412.9861    11607.782    1878.9284 
   91700    304.73528   -1168.0506    6455.7123    11797.863    1921.3064 
   91800    297.70444   -1164.8779    6364.1243    11559.245    1845.2843 
   91900    299.81856    -1164.355    6479.1212     11719.93     1902.649 
   92000    301.32462   -1164.3087    6385.9159    11658.945    1799.8723 
   92100    294.83049   -1157.9077    6491.5903    11632.284    1934.2329 
   92200     302.3106   -1154.3722     6331.359    11635.389    1895.2013 
   92300    300.78063   -1149.7748    6493.3093    11769.251    1924.3428 
   92400    299.91278   -1149.9429    6390.2197    11647.453    1882.6126 
   92500    299.98766   -1150.2324    6377.4156    11635.959    1917.2624 
   92600    299.53615   -1148.5905    6556.1192    11806.659    1956.0522 
   92700    302.72777   -1146.0268    6388.1549    11709.442    1859.6973 
   92800    298.56199   -1140.5421    6359.7926    11597.569     1954.124 
   92900    297.84147   -1145.4795    6404.0809    11621.527    1857.1346 
   93000     298.7403   -1152.1957    6440.8274     11670.76    1813.2073 
   93100    299.34448   -1144.6756    6446.8667    11697.227    1882.8893 
   93200    304.35773   -1146.2314      6414.16    11770.064    1900.0877 
   93300    295.18705   -1148.7287    6467.4246    11624.914    1822.9683 
   93400    299.44152   -1152.6627    6473.7199    11718.166    1851.5975 
   93500     300.9491   -1150.2929    6395.3758    11674.399    1869.4816 
   93600     296.0864   -1152.5835    6377.3097    11550.158    1847.5674 
   93700    306.79234   -1152.9062    6394.6235    11795.865    1933.2066 
   93800    301.40846   -1165.3912    6304.1314    11577.869    1950.2891 
   93900    297.46399   -1160.9961    6498.2183    11692.084    1963.6053 
   94000    301.37918   -1161.5686    6425.6214    11702.557    1887.4616 
   94100     297.3596   -1166.1745    6430.1732     11616.63    1893.3867 
   94200    300.35547    -1171.628    6369.1907    11614.196    1949.8519 
   94300    299.11233   -1167.1236    6396.9206    11619.873    1942.2122 
   94400    300.80817   -1174.1624    6296.6198    11548.763    1859.9404 
   94500    299.87201   -1176.6143    6405.7001    11635.391    1892.0553 
   94600    299.67657   -1170.0313    6462.5759    11694.675    1878.5493 
   94700    296.14284    -1164.131    6405.3084    11567.815    1874.0207 
   94800    302.71049   -1165.5632    6383.5817    11684.964     1938.717 
   94900    298.44896   -1169.9147    6418.6305     11624.62    1944.2741 
   95000    299.85496   -1166.4494    6330.5143    11570.006    1899.6116 
   95100     299.9128    -1173.375    6369.8086     11603.61    1947.8926 
   95200    301.54585   -1160.8572    6503.2379    11784.445    1943.6167 
   95300     301.4437   -1166.8772    6427.8716    11700.876    1877.5796 
   95400    299.33208   -1159.8507    6437.1824    11672.102     1892.649 
   95500    300.17747   -1163.4919    6385.2807     11634.62    1852.3754 
   95600     297.2765   -1163.4308    6464.8763    11652.302    1865.5987 
   95700    298.76394   -1157.0201    6519.4332    11745.046    1925.5012 
   95800     297.9223   -1153.8053    6359.2545    11570.102    1856.3944 
   95900    296.96293   -1154.5106    6451.0118    11640.659    1875.5604 
   96000    300.54018   -1151.4607    6384.4044    11653.523    1842.1982 
   96100    300.50551   -1147.8972    6406.4405    11678.382    1893.1995 
   96200    296.66974   -1151.4575    6454.5648    11641.001    1919.9352 
   96300    301.96453    -1148.253    6538.2458    11841.002    1948.9956 
   96400    304.06819    -1147.065    6487.7592    11836.645    1942.0636 
   96500     295.5579   -1145.2594    6387.7659    11556.648    1925.3718 
   96600    301.20874   -1148.2881     6421.869    11708.443    2007.1044 
   96700    300.22401   -1144.7257    6449.3133    11718.413    1937.7769 
   96800    297.81522   -1148.9167    6443.4691    11656.918    1899.6034 
   96900    305.41278   -1151.7848    6420.3172    11793.208     1908.761 
   97000    297.76313   -1149.6724     6364.544    11576.124    1809.1156 
   97100     300.4602   -1145.2688    6525.8413    11799.444    1894.5584 
   97200    300.23878   -1155.7451    6396.0376    11654.433    1887.5928 
   97300    298.14503   -1156.3701    6362.0197    11575.061    1857.4313 
   97400    301.12536    -1156.679    6383.4577     11659.86    1892.4081 
   97500    295.66161   -1155.9154     6358.696    11519.137    1877.6589 
   97600    303.73306   -1155.3993    6383.2723    11716.664    1911.9503 
   97700    296.73013   -1154.4277    6458.0304    11642.786     1826.126 
   97800    301.97749   -1158.2807     6396.727    11689.732    1884.3193 
   97900    302.00543   -1156.1689    6419.6598    11715.374    1900.4314 
   98000     300.3862   -1157.1842    6393.7793    11653.885    1819.6284 
   98100    298.70687   -1150.8133    6370.9854    11601.586    1853.1097 
   98200    299.74398   -1154.2547     6434.381    11683.697    1948.2621 
   98300    303.52614   -1156.2337    6506.8008    11834.937    1920.5765 
   98400    298.55141   -1164.1986    6332.4526    11546.347    1846.9737 
   98500    298.56146   -1159.5676    6374.6581    11593.398    1904.7134 
   98600    306.43234   -1154.7375    6420.4772    11812.196    1914.9812 
   98700    302.39566   -1153.0091    6506.3571    11813.567    1952.6125 
   98800    300.37693   -1155.1408    6390.2117    11652.163    1945.6312 
   98900    295.17125    -1152.445    6392.5074    11545.943    1906.1077 
   99000    300.78292   -1158.3003    6457.0871    11724.552    1854.0428 
   99100    301.07471   -1153.1317     6504.092     11782.96    1854.7085 
   99200    296.04973   -1155.2626    6419.6438    11589.029    1870.0736 
   99300     299.8664   -1152.7758    6470.7351    11724.145    1886.1685 
   99400    298.60902   -1150.2523    6483.4787     11712.55    1868.0038 
   99500    296.68229   -1148.2034    6381.4539    11571.412    1848.6915 
   99600    300.98925   -1145.9313    6386.1998    11670.442    1915.3567 
   99700    298.54284   -1151.8974    6413.2343    11639.247    1939.8017 
   99800    300.86463   -1157.4691    6458.1238    11728.166    1981.7847 
   99900    304.05433    -1159.006     6447.734    11784.382    1925.2761 
  100000    302.70258   -1159.0934    6470.7205    11778.403    1858.8631 
  100100    299.60547   -1161.4304    6441.5483    11680.729    1909.5636 
  100200     300.7256   -1161.9683    6398.4283    11661.001    1898.0435 
  100300    300.58268   -1151.9375    6392.0683    11661.618    1889.0236 
  100400     291.5267   -1155.7342    6477.3077    11549.594    1980.0357 
  100500    302.74674   -1158.0383    6376.7025    11686.384    1906.2458 
  100600    300.26756   -1153.2492    6470.9463    11732.453    1922.7108 
  100700    299.75124   -1160.3082    6445.5042    11688.921    1972.0044 
  100800     301.4215   -1161.4299    6355.2127    11633.191    1932.6173 
  100900    298.05851   -1164.9546    6380.2495    11582.858    1899.2895 
  101000    297.87827    -1165.024    6492.6206    11691.309    1934.7635 
  101100    297.53834   -1163.6386    6486.4852    11679.297    1862.8797 
  101200    304.10413   -1162.6517    6437.7397    11771.806    1893.7104 
  101300    299.33342   -1163.6881    6417.6804    11648.792     1937.596 
  101400    297.52634   -1160.5219    6437.4248    11633.097    1899.2298 
  101500    302.06566   -1157.2525    6334.5749    11630.492     1865.659 
  101600    293.33873   -1154.8006     6460.397    11572.328    1895.9992 
  101700    301.57028    -1160.299    6446.0158    11728.303    1906.7186 
  101800    298.34168   -1162.9928    6433.2433    11643.863    1940.7262 
  101900    297.90978   -1161.2589    6429.8633     11632.99     1901.274 
  102000    300.57941   -1156.7282    6448.7479    11713.438    1933.5301 
  102100    293.02115   -1160.2043    6409.6344    11509.377    1868.3763 
  102200    299.19821   -1153.8621    6410.2818     11648.33    1887.0255 
  102300    298.01214    -1151.206    6496.5056    11711.872    1969.1355 
  102400    298.21955   -1157.0146    6389.5794    11603.568    1963.1201 
  102500    299.92789   -1154.0752    6325.2726    11578.697    1909.1003 
  102600    296.63971   -1148.4994    6536.7715    11725.524    1929.4323 
  102700    303.36963   -1153.7526    6371.7891    11699.063    1871.4591 
  102800    301.68472   -1152.4384    6417.0718    11709.665    1875.2588 
  102900    299.61491   -1153.2371    6361.0392    11608.615    1898.5392 
  103000    294.33958   -1155.4976    6433.2758    11565.892    1978.4355 
[...]
  588400    300.43943   -1154.5596    6491.1902    11755.058    1973.8276 
  588500    299.77459   -1153.5432    6504.3287     11755.01    1911.0491 
  588600    303.40136   -1152.7347    6426.1248    11755.094    1880.9158 
  588700     301.7115   -1154.9779    6464.4842     11755.11    1964.9103 
  588800    300.63576    -1149.034    6481.5126      11755.1    1952.0384 
  588900     300.8268   -1157.6352    6485.9688    11755.037    1893.7105 
  589000    302.89945   -1163.1943    6447.3369    11755.124    1858.4248 
  589100    303.59186   -1159.3907    6428.7005    11755.084     1908.349 
  589200    300.01332   -1153.6634    6499.3993     11755.06    1941.0037 
  589300    302.94251   -1161.1724    6444.3209     11755.05     1941.357 
  589400     302.1501   -1151.8089    6451.8974    11755.062    1998.0982 
  589500    303.63841   -1156.3399    6424.6569    11755.086    1928.9107 
  589600    301.55679   -1165.2551    6478.0938    11755.137    1907.3873 
  589700    301.99702   -1162.7514     6466.222    11755.174    1900.3491 
  589800    301.55955   -1162.4467    6475.2203    11755.131    1841.6196 
  589900    302.07093    -1161.704    6463.6035    11755.182     1864.404 
  590000    301.99713   -1167.9299    6471.5236    11755.299    1935.4871 
  590100     302.6063   -1164.0898    6454.5457    11755.175    1930.4501 
  590200    301.02882   -1166.0193    6490.2594    11755.259    1922.2246 
  590300    300.53486    -1166.663    6501.4884    11755.292    1936.9698 
  590400    303.89469    -1166.615    6429.7598    11755.389    1935.5828 
  590500    300.24973    -1167.593    6508.5147    11755.297    1954.7758 
  590600    300.69184   -1164.6499    6496.1317    11755.302    1938.6702 
  590700    302.18185     -1163.12    6462.7127    11755.244    1943.1414 
  590800    300.00733   -1160.3014    6506.3711    11755.266    1946.0064 
  590900    302.49337   -1164.4083    6457.3204    11755.219     1976.756 
  591000    306.40362   -1162.2625    6371.5762    11755.157    1915.9392 
  591100    301.03277   -1156.8971    6481.0365    11755.243    1905.7452 
  591200    304.13447   -1163.4198    6421.2224    11755.169    1926.5128 
  591300    299.39103   -1165.1354    6524.3035    11755.198    1940.0355 
  591400    304.40891   -1162.3841    6414.3047     11755.15    1932.9423 
  591500    302.10462   -1162.2032    6463.3622    11755.161    1961.4835 
  591600    300.38596   -1154.9565    6492.7501    11755.079    1962.0514 
  591700    300.69387   -1156.0524     6487.219     11755.03    1914.7766 
  591800    302.42898   -1163.6313    6457.7877    11755.088    1898.7143 
  591900    299.05201   -1159.3338    6525.5995    11755.053     1928.234 
  592000    303.83068   -1157.4498    6421.6175    11755.044    1940.1647 
  592100    301.15035   -1156.8099    6478.3053    11755.111     1946.034 
  592200    302.69176   -1164.1831    6452.7216    11755.084     1825.801 
  592300    297.56955   -1164.0791    6562.1041    11755.142    1921.4411 
  592400    302.81799   -1160.3791    6446.2812    11755.144    1875.3331 
  592500    299.23404    -1159.614     6522.101    11755.163    1887.1378 
  592600    302.83829   -1161.3604     6446.891    11755.206    1893.7504 
  592700    300.37397   -1163.0207     6501.218    11755.226    1937.6611 
  592800    302.33088   -1161.8905    6458.2416    11755.186    1930.9931 
  592900    300.88581   -1156.9376    6484.2247    11755.251    1942.1212 
  593000    307.40444   -1168.5839    6356.6511    11755.292    1878.8251 
  593100    301.45976   -1164.7015    6479.7902    11755.314    1833.5328 
  593200    302.12166   -1163.1209    6464.0297    11755.275     1853.675 
  593300    303.71807   -1165.1937    6432.0647    11755.342    1908.3468 
  593400    303.67928    -1171.269    6438.9843    11755.357     1915.903 
  593500    301.54499   -1165.4727    6478.7562    11755.329    1889.9566 
  593600    308.78912   -1170.2417    6328.7041    11755.268    1877.3712 
  593700    297.56355   -1165.3315    6563.6739    11755.331    1967.4224 
  593800    306.52128   -1168.1331    6375.0272    11755.251    1887.7538 
  593900    301.54121   -1160.1762    6473.4544    11755.244     1865.538 
  594000    301.08584   -1166.1517    6489.2407    11755.326    1937.1995 
  594100    304.42231   -1164.5461    6416.3589    11755.328    1921.7761 
  594200    303.41288   -1165.3202    6438.5995     11755.23    1962.8434 
  594300    303.02073   -1165.7042    6447.4626    11755.331    1960.5194 
  594400    301.78512   -1157.1036    6465.1877     11755.26    1896.4276 
  594500    299.85688   -1154.9827    6504.2038    11755.203    1892.0359 
  594600    304.80525   -1153.5254    6396.9001    11755.071    1895.4066 
  594700    303.15434   -1162.8804    6441.6307    11755.178    1917.0672 
  594800     302.4208   -1162.0535    6456.4782    11755.181    1900.8024 
  594900    299.18101    -1158.399    6521.9457     11755.09     1876.274 
  595000    303.69539   -1161.0288    6428.0317    11754.989    1889.4362 
  595100    299.31133   -1154.5447    6515.2836    11755.066    1935.5219 
  595200    302.92287   -1156.0618    6439.6217    11755.042    1936.7352 
  595300    302.33276   -1152.7356    6448.9271    11755.067    1931.5769 
  595400    302.16918   -1155.3386    6455.0711    11755.113    1928.2555 
  595500    300.06373   -1159.6648    6504.3451    11755.081     1918.869 
  595600    302.11907   -1158.7244    6459.4398    11755.026    1836.7678 
  595700    300.44027   -1160.7897    6497.4968    11755.153    1938.0647 
  595800    299.11282   -1162.5434     6527.641    11755.184     1927.168 
  595900    301.24221   -1163.7588    6483.2963    11755.115    1908.7217 
  596000    302.46517   -1157.1103    6450.6267    11755.221    1895.0457 
  596100    300.32488   -1162.0995    6501.2991     11755.18    1954.6651 
  596200    299.40861   -1154.6578    6513.4783    11755.226    1942.5846 
  596300    305.54511   -1165.6341    6393.3377    11755.206    1880.0233 
  596400    303.64879   -1159.5661    6427.7969    11755.221    1915.0425 
  596500    303.89914   -1163.2238    6426.1085    11755.224    1944.6072 
  596600    303.19344   -1170.9586    6448.9707    11755.275    1936.5032 
  596700    302.96168   -1171.6999    6454.6053    11755.217    1850.4431 
  596800     302.3932   -1171.1711    6466.2463    11755.242     1927.625 
  596900     304.2073    -1171.615    6427.9914    11755.299    1913.4032 
  597000    298.32932   -1168.3599    6550.3156    11755.304     1968.844 
  597100    302.88502    -1167.164    6451.7967    11755.306     1942.876 
  597200    303.26109    -1167.835    6444.4196    11755.293    1923.2331 
  597300     303.7427    -1161.343    6427.5836    11755.237     1868.652 
  597400    302.45796   -1165.8866    6459.5768     11755.24    1921.0385 
  597500    303.49532    -1161.943     6433.506    11755.275    1938.7822 
  597600    300.32853   -1162.7335     6501.947    11755.272    1961.5887 
  597700    303.86513   -1168.4264    6432.0736    11755.259    1924.7643 
  597800    304.18203   -1169.1391    6426.0509    11755.294    1923.2007 
  597900    297.99161   -1165.7057    6554.8061    11755.234    1936.5895 
  598000    301.82839   -1158.3745    6465.4702    11755.196     1958.492 
  598100    301.69499   -1162.2212    6472.0979    11755.127    1936.1626 
  598200    303.77924   -1162.8741    6428.2739    11755.177    1881.9447 
  598300    298.45461   -1156.0926     6535.129    11755.061     1900.963 
  598400    301.04802   -1156.4563    6480.0137    11754.986    1862.1038 
  598500    300.11354   -1160.6238    6504.1431    11754.985    1915.3924 
  598600    304.31147   -1158.6193    6412.5543    11755.083    1895.5837 
  598700    300.87517   -1156.6062    6483.8581    11754.988    1905.4721 
  598800    302.30297   -1159.8643    6456.6544    11755.029    1870.9856 
  598900    299.22687   -1158.4169    6520.9719    11755.078    1891.9006 
  599000    300.97838   -1161.4355    6486.5544     11755.06    1888.5656 
  599100    304.55705   -1159.4944    6408.0781    11754.978     1854.977 
  599200    303.12238   -1157.5868    6436.8421        11755    1895.3956 
  599300    300.54299   -1158.1833    6492.4736     11754.93    1928.8181 
  599400    304.70222   -1157.9676    6403.3795    11754.907    1892.5424 
  599500    303.81557   -1155.3897    6419.7795    11754.943    1939.3066 
  599600    297.20441   -1158.8061    6564.4542    11754.964     1989.876 
  599700    302.78795   -1162.3922    6448.7452    11754.953    1937.0115 
  599800    299.53781   -1151.7144    6507.5573    11755.009    1922.7174 
  599900    305.02611   -1162.6752    6401.2698    11755.009    1928.6308 
  600000    300.59601   -1158.1614    6491.4061    11755.017    1910.2491 
Loop time of 281.256 on 8 procs for 300000 steps with 7168 atoms

Pair  time (%) = 137.362 (48.8389)
Bond  time (%) = 81.1353 (28.8475)
Neigh time (%) = 19.6658 (6.99214)
Comm  time (%) = 32.7527 (11.6452)
Outpt time (%) = 0.484215 (0.172162)
Other time (%) = 9.85555 (3.50412)

Nlocal:    896 ave 902 max 890 min
Histogram: 2 0 0 2 0 1 0 1 0 2
Nghost:    2842.25 ave 2852 max 2839 min
Histogram: 4 1 0 2 0 0 0 0 0 1
Neighs:    23610.4 ave 23948 max 23238 min
Histogram: 2 0 0 2 0 0 1 0 1 2

Total # of neighbors = 188883
Ave neighs/atom = 26.3509
Ave special neighs/atom = 157.056
Neighbor list builds = 3056
Dangerous builds = 0
# −−−−−−−−−−−−−− Flux calculation in nve −−−−−−−−−−−−−−−
reset_timestep  0
compute         PE all pe/atom
compute         KE all ke/atom

variable        CX atom (vx*(c_KE+c_PE))
compute         Jcx all reduce sum v_CX

variable        CZ atom (vz*(c_KE+c_PE))
compute         Jcz all reduce sum v_CZ

variable        CY atom (vy*(c_KE+c_PE))
compute         Jcy all reduce sum v_CY

compute         SA all stress/atom virial

variable        VX atom -(c_SA[1]*vx+c_SA[4]*vy+c_SA[5]*vz)*1.4593e-5
compute         Jvx all reduce sum v_VX

variable        VZ atom -(c_SA[3]*vz+c_SA[6]*vy+c_SA[5]*vx)*1.4593e-5
compute         Jvz all reduce sum v_VZ

variable        VY atom -(c_SA[2]*vy+c_SA[6]*vz+c_SA[4]*vx)*1.4593e-5
compute         Jvy all reduce sum v_VY

variable        Jx equal (c_Jcx+c_Jvx)/vol
variable        Jz equal (c_Jcz+c_Jvz)/vol
variable        Jy equal (c_Jcy+c_Jvy)/vol

fix             JJTx all ave/correlate $s $p $d                 v_Jx type auto file J0Jt_tx.dat ave running
fix             JJTx all ave/correlate 5 $p $d                 v_Jx type auto file J0Jt_tx.dat ave running
fix             JJTx all ave/correlate 5 20000 $d                 v_Jx type auto file J0Jt_tx.dat ave running
fix             JJTx all ave/correlate 5 20000 100000                 v_Jx type auto file J0Jt_tx.dat ave running

fix             JJTz all ave/correlate $s $p $d                 v_Jz type auto file J0Jt_tz.dat ave running
fix             JJTz all ave/correlate 5 $p $d                 v_Jz type auto file J0Jt_tz.dat ave running
fix             JJTz all ave/correlate 5 20000 $d                 v_Jz type auto file J0Jt_tz.dat ave running
fix             JJTz all ave/correlate 5 20000 100000                 v_Jz type auto file J0Jt_tz.dat ave running

fix             JJTy all ave/correlate $s $p $d                 v_Jy type auto file J0Jt_ty.dat ave running
fix             JJTy all ave/correlate 5 $p $d                 v_Jy type auto file J0Jt_ty.dat ave running
fix             JJTy all ave/correlate 5 20000 $d                 v_Jy type auto file J0Jt_ty.dat ave running
fix             JJTy all ave/correlate 5 20000 100000                 v_Jy type auto file J0Jt_ty.dat ave running

run             1000000
Memory usage per processor = 13.8919 Mbytes
Step Temp E_pair E_mol TotEng Press 
       0    300.59601   -1158.1614    6491.4061    11755.017    1910.2491 
     100    301.80981   -1164.0797    6471.4967     11755.12    1922.1972 
     200    300.45277   -1162.0956    6498.5383    11755.155    1920.8742 
     300    303.53609   -1160.6909    6431.1576     11755.05    1890.3073 
     400    301.07982   -1157.9581    6480.9475    11755.098    1946.1984 
     500    302.16278   -1159.6817    6459.6497    11755.212    1936.8301 
     600    304.42968   -1166.4243    6417.9072    11755.156     1922.534 
     700    301.59035   -1162.6654    6474.7258    11755.075    1866.5783 
     800    301.18828   -1161.5673    6482.2539    11755.112    1937.9502 
     900    301.82909   -1161.9608     6469.013    11755.168    1903.0771 
    1000    300.00607   -1155.6801    6501.7242    11755.213    1880.9955 
    1100    304.37519    -1158.137    6410.6866    11755.059    1869.1867 
    1200      301.619   -1165.9622    6477.4923    11755.157    1918.1054 
    1300    302.39249   -1165.0207    6460.0036    11755.134    1876.9866 
    1400    302.66447   -1162.6859    6451.8477    11755.124     1883.181 
    1500    301.11254   -1163.4453    6485.8157    11755.178    1928.6493 
    1600    300.57952   -1159.2265    6492.9634    11755.157    1896.5368 
    1700    302.08235    -1158.145     6459.752    11755.133    1936.3622 
    1800    303.87082   -1163.7059    6427.1181    11755.146    2001.1016 
    1900    303.61486   -1157.2984    6426.1515    11755.119    1954.9775 
    2000    298.53737   -1157.2755    6534.6788    11755.196    1888.8578 
    2100    302.35845   -1157.8947    6453.7002     11755.23    1893.1176 
    2200    303.42616   -1160.4923    6433.5117    11755.254    1922.3198 
    2300     301.1047   -1161.7097    6484.3148    11755.245    1985.6694 
    2400    302.26749   -1164.9884    6462.8054    11755.298     1932.201 
    2500    300.26372    -1161.896    6502.4302    11755.208    1860.0588 
    2600    299.30923   -1162.1009    6523.0726    11755.254    1914.1737 
    2700    303.83614   -1160.7875    6425.0962    11755.302    1970.0064 
    2800    302.95742   -1157.1345    6440.1379    11755.224    2025.5776 
    2900    303.46619   -1162.4892    6434.5675    11755.168    1989.8813 
    3000    299.87455   -1159.5147    6508.3455     11755.19    1992.7551 
    3100    300.58452   -1157.3466    6491.0277    11755.208     1901.838 
    3200    304.21024   -1161.5796    6417.6718    11755.077    1927.8087 
    3300     302.5994   -1166.0923    6456.6415    11755.121    1967.3477 
    3400    301.53783   -1158.7553    6472.0115    11755.149    1983.6063 
    3500    300.07227   -1160.7198    6505.2925    11755.156    1954.2379 
    3600    301.92683    -1167.835    6472.7889    11755.157     1921.831 
    3700    301.77579   -1164.8753    6473.0692    11755.171     1862.143 
    3800    302.61677   -1164.2819    6454.4871    11755.148    1882.8118 
    3900    304.47192   -1161.9778    6412.5427     11755.14    1902.6724 
    4000    300.63825   -1158.2492    6490.7046     11755.13    1944.3777 
    4100    304.36278   -1158.1985    6411.0137    11755.059    1927.1525 
    4200    299.33258   -1153.0376    6513.2863     11755.03    1935.6852 
    4300    302.43718   -1158.6195    6452.5927     11755.08    1926.6731 
    4400    303.08211   -1155.5233    6435.7727    11755.134    1961.2794 
    4500    302.73735   -1158.1878    6445.8152    11755.146    1935.1692 
    4600    300.57612   -1160.1444    6493.9635    11755.167    1917.4265 
    4700    301.89503   -1166.3589    6472.0129    11755.178    1892.1105 
    4800     304.1367   -1160.4238    6418.0472    11755.037    1849.2431 
    4900    302.12109   -1153.8199    6454.5922    11755.126    1865.1852 
    5000    303.19072   -1155.7676    6433.6291    11755.066    1882.3214 
    5100      304.044   -1158.0782     6417.671    11755.026    1954.6494 
    5200    301.75147   -1158.5651    6467.2139    11755.106    1892.9441 
    5300    300.63359   -1158.3602    6490.7964    11755.012    1950.4625 
    5400    303.42929   -1160.6287    6433.4125    11755.085     1946.027 
    5500    303.84534   -1161.4797    6425.4519    11755.162    1984.1508 
    5600    299.70152     -1163.81    6516.3835    11755.237    2010.5207 
    5700    302.89034   -1163.8552    6448.2429    11755.175     1903.477 
    5800    299.36649   -1164.7647    6524.5176    11755.259    1973.0194 
    5900    298.02255   -1164.4965    6553.0059    11755.304    2017.9804 
    6000    302.70658   -1162.9734    6451.3288    11755.217      1896.54 
    6100    300.07372   -1164.8907       6509.6    11755.324    1988.8951 
    6200    301.37098   -1163.7626    6480.7201    11755.286     2039.117 
    6300    306.74979    -1164.358    6366.4287    11755.309    1976.1333 
    6400    298.17268     -1161.33    6546.6919    11755.364    1994.5887 
    6500    301.82089    -1163.514    6470.9077    11755.334    1939.2367 
    6600    300.30102   -1168.6778    6508.5281    11755.321    1903.5872 
    6700    303.14904   -1167.1426    6446.1296    11755.301    1929.0102 
    6800    297.84213   -1169.2319    6561.7132    11755.421    2009.7415 
    6900    302.04433   -1166.1043    6468.6827    11755.292    1909.4493 
    7000    299.65169   -1167.3882    6521.0519    11755.262    1922.7778 
    7100    300.06924   -1165.6259    6510.3777    11755.271    1986.7709 
    7200    301.90173    -1158.569    6464.1993    11755.298    1984.7705 
    7300    305.07773   -1160.8658    6398.4605    11755.112    1966.0901 
    7400     299.3468   -1159.6313    6519.7692    11755.223    2006.7144 
    7500    299.25613   -1160.7592    6522.7727    11755.162     1961.441 
    7600    301.01917   -1160.4052    6484.6921      11755.1      1930.61 
    7700    302.36754   -1158.6796    6454.1733    11755.112    1985.8621 
    7800    300.11503   -1168.3293    6512.0775    11755.245    1939.7798 
    7900    298.43408   -1166.3333    6545.9548    11755.208    1918.3851 
    8000    304.36704   -1159.6181     6412.399    11755.116    1875.9833 
    8100    301.83521   -1162.9485    6469.8229    11755.121      1961.21 
    8200    300.46252   -1156.9261    6493.1021    11755.097    1985.4927 
    8300    303.07518   -1149.9129      6430.26    11755.083    1977.2216 
    8400    299.18548   -1156.0883    6519.5889    11755.139    1977.4067 
    8500    305.10841   -1153.0197    6390.0268     11755.18     1929.843 
    8600    300.50963   -1163.1271    6498.3206    11755.121    1947.8977 
    8700    305.11105   -1161.2859    6398.2745    11755.218    1907.8988 
    8800    302.04744   -1163.5757    6465.9666    11755.171    1924.2099 
    8900    299.61599   -1165.6107    6520.0101    11755.235    1931.2869 
    9000    300.68919   -1158.3844    6489.7927    11755.171    1880.7327 
    9100    301.29205   -1158.1639    6476.7328    11755.211    1947.9846 
    9200    303.39731   -1161.3371    6434.9985    11755.279    1934.6361 
    9300    299.04252   -1162.6226    6529.2558    11755.218    2011.6053 
    9400    299.43703   -1160.3568    6518.5384    11755.194    1981.1639 
    9500    301.66819   -1166.0465    6476.6516    11755.283    1994.3663 
    9600    302.05288   -1162.7345    6465.1214    11755.283    1920.9133 
    9700    304.19691   -1160.4546    6416.9953    11755.241    1908.4844 
    9800    303.52737   -1169.3689    6440.1523     11755.18    1954.5156 
    9900    303.26275   -1165.8389     6442.392    11755.296    1910.7786 
   10000    299.90822   -1165.0472    6513.3128    11755.345    1905.1808 
Loop time of 1427.64 on 8 procs for 1000000 steps with 7168 atoms

Pair  time (%) = 563.842 (39.4946)
Bond  time (%) = 297.939 (20.8693)
Neigh time (%) = 65.7722 (4.60704)
Comm  time (%) = 120.883 (8.46731)
Outpt time (%) = 0.00360051 (0.000252199)
Other time (%) = 379.205 (26.5616)

Nlocal:    896 ave 909 max 889 min
Histogram: 1 2 1 2 0 0 1 0 0 1
Nghost:    2844.25 ave 2853 max 2828 min
Histogram: 1 0 0 0 1 1 0 2 1 2
Neighs:    23648.5 ave 24267 max 23210 min
Histogram: 2 0 1 1 1 2 0 0 0 1

Total # of neighbors = 189188
Ave neighs/atom = 26.3934
Ave special neighs/atom = 157.056
Neighbor list builds = 10185
Dangerous builds = 0
