LAMMPS (11 Jun 2012)
# Initialization
atom_style      full
units           real
variable        T equal 300
variable        dt equal 1.0
variable        seed equal 123463
variable        radius equal 0.5
variable        sizet equal 4
variable        sizeb equal -4
variable        p equal 20000    # correlation length
variable        s equal 5        # sample interval
variable        d equal $p*$s    # dump interval
variable        d equal 20000*$s    variable        d equal 20000*5    
# convert from LAMMPS real units to SI
variable        kB equal 1.3806504e-23    # [J/K] Boltzmann
variable        kCal2J equal 4186.0/6.02214e23
variable        A2m equal 1.0e-10
variable        fs2s equal 1.0e-15
variable        convert equal ${kCal2J}*${kCal2J}/${fs2s}/${A2m}
variable        convert equal 6.9510174124148567155e-21*${kCal2J}/${fs2s}/${A2m}
variable        convert equal 6.9510174124148567155e-21*6.9510174124148567155e-21/${fs2s}/${A2m}
variable        convert equal 6.9510174124148567155e-21*6.9510174124148567155e-21/1.0000000000000000777e-15/${A2m}
variable        convert equal 6.9510174124148567155e-21*6.9510174124148567155e-21/1.0000000000000000777e-15/1.0000000000000000364e-10
variable        b_eq equal 10.0/3.0

# setup problem
dimension       3
boundary        p p p
neighbor        2    bin
pair_style      lj/cut 10.0
bond_style      morse
read_data       lammps.data
  9 = max bonds/atom
  orthogonal box = (0 0 0) to (80 80 80)
  2 by 2 by 2 MPI processor grid
  7168 atoms
  33696 bonds
  10 = max # of 1-2 neighbors
  86 = max # of 1-3 neighbors
  824 = max # of 1-4 neighbors
  164 = max # of special neighbors
pair_coeff      1 1 0.000 3.500
pair_coeff      2 2 0.000 3.500
pair_coeff      1 2 0.105 3.500
bond_coeff      1 10 1.8 ${b_eq}
bond_coeff      1 10 1.8 3.3333333333333334814
bond_coeff      2 5 0.805 7.4536
bond_coeff      3 10 1.8 ${b_eq}
bond_coeff      3 10 1.8 3.3333333333333334814
bond_coeff      4 5 0.805 7.4536
velocity        all create $T ${seed} mom yes rot yes dist gaussian
velocity        all create 300 ${seed} mom yes rot yes dist gaussian
velocity        all create 300 123463 mom yes rot yes dist gaussian
timestep        ${dt}
timestep        1
thermo          100
dump            T1 all cfg 600000 *.cfg id type xs ys zs
dump            T2 all xyz 10000 traj.xyz
#dump_modify    1 element Cu
# −−−−−−−−−−−−− Equilibration and thermalisation −−−−−−−−−−−−−−−−
fix             NVT all nvt temp $T $T 10
fix             NVT all nvt temp 300 $T 10
fix             NVT all nvt temp 300 300 10
run             300000
Memory usage per processor = 11.5453 Mbytes
Step Temp E_pair E_mol TotEng Press 
       0          300   -906.89526 0.00012694983    5502.1446    343.62551 
     100    244.97815   -934.99846    7039.4404    11338.024    2175.8146 
     200     292.9908   -991.75852    9954.6537    15222.194    1148.2766 
     300    302.17818   -991.55701    8326.2865    13790.303    479.65684 
     400    299.06876   -969.87461    6426.6044    11845.875    781.95343 
     500    299.83711   -953.88641    5742.0626    11193.736    1235.5947 
     600    301.74999   -951.51703    5688.1695    11183.078    1214.7181 
     700     298.3798   -962.79444    6538.0839    11949.716    1187.9601 
     800    298.51775   -973.08268    7063.3587     12467.65    1108.4121 
     900    298.44254   -975.26613    6983.3637    12383.865    1094.2845 
    1000    301.07037   -971.31436    6632.5313    12093.124    1095.4987 
    1100    297.97445   -966.21372      6384.08    11783.633    1158.1062 
    1200    302.87628   -965.20109    6228.2042     11733.49    1140.3385 
    1300    299.23374   -967.76106    6236.8208    11661.729    1070.1483 
    1400    300.19695   -975.58033    6556.5394    11994.206    1179.2976 
    1500    296.61355   -980.65395    7023.2678    12379.307    1378.3701 
    1600    305.41546   -979.21451     6782.154    12327.672    1443.0618 
    1700    299.90478    -979.2296    6309.2686    11737.044    1331.8779 
    1800    300.44958   -980.01189    6445.9356    11884.568    1413.7784 
    1900     296.2298   -982.13945    6574.9681    11921.324    1399.9614 
    2000    304.42837   -984.89156    6510.7275    12029.481    1399.8396 
    2100    297.33102   -989.14159    6316.5777    11679.457    1408.0751 
    2200    299.52902   -996.77046    6394.7242    11796.932    1543.1237 
    2300    307.85624   -1006.4021    6402.0366    11972.511    1500.1832 
    2400    300.47891   -1020.8064    6598.9805    11997.445    1489.6214 
    2500    298.28187   -1034.1614    6616.5025    11954.676    1441.4456 
    2600    295.58495   -1045.7767    6345.1608    11614.103    1384.6263 
    2700    299.90918   -1062.2006    6340.1907     11685.09    1402.9893 
    2800    297.66883   -1080.1498    6650.5981    11929.686    1498.0617 
    2900    303.37513   -1095.1824    6428.7599    11814.722    1508.1345 
    3000    293.79156   -1112.1045    6152.0758    11316.377    1525.1659 
    3100    305.36446    -1123.117    6198.9776    11599.504    1543.7595 
    3200    303.81045   -1128.9733    6277.2919    11638.763    1504.1501 
    3300    297.13492   -1141.3781    6165.1597    11371.613    1449.3282 
    3400    300.60664   -1141.2438    6116.6749    11397.431    1532.3653 
    3500    298.32674   -1133.2491    6256.8926    11496.937    1629.2607 
    3600    300.55541   -1129.2416    6383.7135    11675.377    1712.1563 
    3700    299.71818   -1129.3025    6227.8358    11501.552    1755.5797 
    3800    301.13256   -1133.4213    6161.2323    11461.046    1788.7564 
    3900     303.5857   -1126.2274    6145.1144     11504.53    1716.9251 
    4000    300.52216   -1132.6722    6409.3684    11696.891    1810.4217 
    4100    301.21152   -1127.5451    6259.3331     11566.71    1676.5251 
    4200    298.59246   -1142.1217    6376.6394    11613.487    1709.2992 
    4300     305.0379   -1151.9063    6254.8071    11619.568    1786.1266 
    4400    297.57654   -1158.2228    6176.1566      11375.2     1737.771 
    4500    299.89547   -1154.1977    6206.8782    11459.487    1687.0309 
    4600    300.80189   -1146.7151    6287.1053    11566.561    1680.5629 
    4700    299.19887   -1138.9057    6455.8214     11708.84    1686.7221 
    4800    301.64351   -1127.5172    6455.1869    11771.821    1659.1842 
    4900    295.76514   -1108.4658    6299.0984    11509.201    1662.6108 
    5000    301.41283   -1091.6212    6321.5561    11669.158    1764.4915 
    5100    296.68644   -1076.1628    6307.6536    11569.741    1737.1661 
    5200    300.88371    -1064.637    6559.7053    11922.987    1727.4446 
    5300     295.5901    -1056.166    6559.3309    11817.994    1654.9897 
    5400    302.90764   -1048.1934    6480.1789    11903.143     1647.208 
    5500     300.9119   -1039.9884    6491.7053    11880.238    1569.9566 
    5600     300.0017   -1036.5468    6456.8807     11829.41    1607.2489 
    5700    299.07772   -1033.8746    6462.4858    11817.948    1574.3389 
    5800    301.54961   -1032.2806    6579.5827    11989.447     1612.875 
    5900    297.84523   -1031.7663    6458.9368    11790.177    1544.4764 
    6000     300.4302   -1034.2671    6529.2234    11913.187     1578.451 
    6100    298.54441   -1033.3119    6494.1952    11838.827    1570.6991 
    6200    304.23737   -1037.0113     6470.651    11933.204    1588.6044 
    6300    297.78447   -1042.7131    6587.3319    11906.327    1636.6372 
    6400    300.51404   -1048.9664    6524.1271    11895.182    1517.2544 
    6500    300.11991   -1052.7001    6609.0873    11967.988    1516.4594 
    6600    297.20209    -1059.536    6542.5013    11832.232    1547.9032 
    6700    299.94382   -1062.6774    6518.5307    11863.693    1565.2867 
    6800    300.41496   -1075.3494    6456.2394    11798.795    1522.6845 
    6900    297.53899   -1080.0964    6611.4819     11887.85    1551.3776 
    7000    304.26298   -1090.2412    6434.0113    11843.882    1563.7695 
    7100    303.22093   -1098.5033    6316.5946    11695.941    1663.6006 
    7200    299.70426   -1107.9347    6378.0266    11672.814    1734.0266 
    7300    297.59704    -1124.778    6449.9832    11682.909    1765.7808 
    7400    304.64034   -1130.2743    6452.5159    11830.415    1763.0872 
    7500    298.81935   -1135.1079    6414.9687    11663.678    1778.3957 
    7600    300.16399    -1138.544     6277.604    11551.603    1791.7328 
    7700    300.19536   -1132.9169    6171.7293    11452.026    1831.9727 
    7800    300.63156   -1139.0109    6269.6548    11553.176    1843.7437 
    7900    303.11753   -1132.1642    6275.1616    11618.638    1835.9624 
    8000    300.95566   -1129.2731    6407.4886    11707.671    1867.3271 
    8100    300.91675   -1141.8237    6251.1161    11537.917    1836.2861 
    8200    301.79718   -1146.1012     6242.309    11543.642    1809.2822 
    8300    297.57751   -1142.6136    6351.9448    11566.618    1880.8108 
    8400    296.85371   -1155.9863    6276.1154    11461.953    1818.7848 
    8500    300.21552    -1148.918     6276.998    11541.724     1797.077 
    8600    304.76201   -1152.8268    6374.0959    11732.042    1812.5408 
    8700    304.82635   -1152.9381    6246.6285    11605.838    1772.6357 
    8800    296.09905   -1142.7874    6201.3208    11384.235    1749.8092 
    8900    299.90835    -1141.723    6344.7757    11610.135    1763.0381 
    9000    297.45025   -1127.8533    6383.6962    11610.411    1732.3948 
    9100    303.08913   -1127.5941    6413.3557    11760.796    1792.7937 
    9200     298.0666   -1122.8444    6366.8305    11611.722    1768.1776 
    9300    300.54305   -1113.5587    6375.3474     11682.43    1777.0359 
    9400    299.28246   -1107.1299    6400.4168    11686.998    1786.1364 
    9500    298.03128   -1106.0699    6370.2555    11631.167    1714.6032 
    9600    301.02661    -1098.227    6452.5883    11785.333    1711.9038 
    9700    301.19546   -1091.8147    6524.6931    11867.457    1833.7605 
    9800    304.09401   -1086.0967    6500.8489    11911.254    1823.6076 
    9900    296.08118   -1083.5554    6363.6807    11605.445    1703.0688 
   10000    300.63725   -1082.6656    6460.8247    11800.813    1838.1418 
   10100    301.74867   -1085.5535    6407.7742    11768.618    1844.7478 
   10200     302.8739   -1086.1357    6447.6589    11831.959     1739.842 
   10300    299.57944   -1087.0915    6552.5218    11865.485    1698.8083 
   10400    302.86791   -1092.9822    6484.3564    11861.682    1715.5483 
   10500    300.46084   -1089.7673    6510.4278    11839.545    1727.3045 
   10600    292.76896   -1093.7259     6466.707    11627.541    1776.8646 
   10700    300.79406   -1099.9462    6309.0064    11635.064    1746.0902 
   10800    300.39335   -1106.0195    6399.0073    11710.431    1765.9873 
   10900    300.54208   -1107.6777    6398.6898    11711.632    1817.9114 
   11000    299.99935   -1107.9118     6373.228    11674.342    1876.4831 
   11100     302.5952   -1106.4238     6460.321    11818.379    1957.6115 
   11200    302.33525   -1114.8391    6328.8138    11672.903    1861.6269 
   11300    299.32193   -1115.9974    6229.5093    11508.066    1844.8496 
   11400    299.95252    -1110.376    6444.2908     11741.94    1929.3821 
   11500    300.61053   -1115.5293    6375.3399    11681.893    1815.8546 
   11600    297.86363   -1101.9245    6383.0073    11644.482    1849.6036 
   11700    302.51295   -1117.1232    6384.8689    11730.471    1895.0207 
   11800    300.00655   -1115.1199    6396.1956    11690.255    1881.6909 
   11900    301.64759   -1120.2619    6298.9468    11622.923    1819.0504 
   12000    299.26555   -1125.6633    6434.5737     11702.26    1893.8088 
   12100    302.08981   -1130.9218    6343.3866     11666.15    1819.7677 
   12200    299.37134   -1127.8766    6423.6828    11691.416    1805.2682 
   12300    300.37773   -1126.1876    6646.3625    11937.284     1879.779 
   12400    302.34336   -1135.6505    6348.5426    11671.994    1796.8442 
   12500    299.76783    -1135.885    6274.2444    11542.439    1749.5232 
   12600    305.85016   -1132.1308    6339.2031    11741.092    1788.3364 
   12700    298.23094   -1134.2495    6474.7225     11711.72    1808.9056 
   12800    306.15692   -1135.8189    6424.3393    11829.093    1714.8373 
   12900    298.68732    -1138.567     6373.182    11615.611    1796.5182 
   13000    300.95066   -1136.1241     6271.072    11564.297    1851.2619 
   13100    299.93234   -1139.0312    6298.0359    11566.599    1829.0809 
   13200    299.92219   -1132.9719    6351.4161    11625.822    1779.8488 
   13300    305.86939   -1125.6384    6481.4386     11890.23    1900.4671 
   13400    304.14533    -1128.451    6380.9178    11750.065    1882.8773 
   13500    294.88194   -1127.0276    6385.8081    11558.481    1870.1715 
   13600    298.29508   -1118.2027    6330.1181    11584.532    1868.1571 
   13700    299.13174   -1120.4167     6422.972    11693.046    1937.3428 
   13800    297.23583   -1115.7708    6362.1836      11596.4    1840.1875 
   13900     297.7534   -1122.2107    6365.1419    11603.976    1818.7819 
   14000    297.59255   -1114.8503    6391.9648    11634.723    1841.4729 
   14100    299.12127    -1116.947     6337.258    11610.578    1815.5316 
   14200    301.61554    -1117.659    6466.7614    11792.656    1866.3776 
   14300     297.7252   -1109.7852    6455.4345    11706.091    1923.3039 
   14400    304.85646   -1103.2116     6431.722    11841.301    1815.3206 
   14500    298.42127    -1096.386    6475.7065    11754.633    1822.7156 
   14600    300.55396   -1089.1414    6408.5962    11740.329    1771.8719 
   14700    299.59452    -1082.338    6389.9706     11708.01    1710.7521 
   14800    295.94066   -1080.8269    6581.7852    11823.277    1771.0192 
   14900    301.66273   -1073.4795    6516.8183      11887.9    1817.2012 
   15000    301.24743   -1071.5383    6532.8062    11896.957    1873.0766 
   15100    298.24519    -1067.826    6437.2193    11740.944    1823.9139 
   15200    302.32855   -1067.0427    6522.1467     11913.89    1903.9389 
   15300    299.03571   -1067.8549    6497.1917    11817.776    1809.7234 
   15400    299.24338   -1070.5196    6446.1987    11768.555    1790.1139 
   15500    297.00363   -1073.9751    6484.4853    11755.537    1828.6873 
   15600    298.07144   -1080.0954    6441.5676    11729.311    1882.0923 
   15700     300.3674   -1085.3605    6468.5835    11800.112    1862.3817 
   15800    300.22767   -1091.4687    6448.0484    11770.483    1833.8171 
   15900    297.55785   -1099.5492    6418.1324     11675.45    1843.0534 
   16000    303.64173   -1105.2977    6406.2583      11787.8    1823.5821 
   16100    298.79968   -1108.5832    6473.0591    11747.873    1857.1888 
   16200    304.35424    -1108.892    6383.1326    11776.302    1826.8087 
   16300    303.95867   -1111.1342    6426.1585    11808.635    1839.3487 
   16400     298.3083   -1108.2056    6288.0677    11552.761    1762.6547 
   16500    300.95457   -1104.6463    6368.9754    11693.762    1880.7927 
   16600    299.96769   -1087.1009    6465.8642    11787.113     1896.737 
   16700    298.98514    -1104.894    6433.8302    11716.295    1811.8646 
   16800    300.28831   -1104.8701    6271.6249    11581.954    1808.0031 
   16900    294.91441   -1106.2592    6434.7513    11628.886    1882.4656 
   17000    300.57337   -1120.1475    6411.5194    11712.661    1854.5102 
   17100    302.48781   -1116.5866    6396.5294    11742.131    1854.8077 
   17200    295.30643   -1116.2882    6396.9658    11589.446    1807.3041 
   17300    300.73333   -1119.7638    6450.9584    11755.901    1825.2383 
   17400    301.17135   -1115.1634    6412.3524    11731.253    1835.5322 
   17500    298.85849   -1109.7833    6399.1549    11674.025    1869.3421 
   17600    305.90832   -1102.3847    6474.6502    11907.527    1884.5421 
   17700    299.93259   -1102.1983    6467.0067    11772.408     1831.095 
   17800    299.76231   -1099.3549    6439.0201    11743.627    1774.1163 
   17900    296.33862   -1094.7332    6361.3573    11597.444    1731.8008 
   18000    302.58908   -1098.9297    6478.7459    11844.168    1844.0417 
   18100    295.45587   -1098.3986    6455.7769     11669.34    1810.9977 
   18200      302.063   -1098.1873    6343.7018    11698.627     1730.721 
   18300    297.99955   -1107.4019    6519.3152    11778.216    1802.5711 
   18400    304.02071   -1112.8366    6492.5618    11874.661    1830.3209 
   18500    296.48073   -1117.3137    6425.4158    11641.958    1804.6051 
   18600    301.83882    -1126.144    6360.0548    11682.234    1816.8056 
   18700     305.0131   -1128.0434    6349.7774    11737.871    1833.0151 
   18800    299.24339   -1130.0318    6347.9943    11610.838    1861.2842 
   18900     299.2473    -1142.814    6235.3861    11485.532    1775.0478 
   19000    301.24602   -1133.3402    6430.1211     11732.44     1907.515 
   19100     299.9786   -1137.7346    6414.5401    11685.388    1921.1876 
   19200    296.80972   -1143.9077    6253.3744    11450.351    1836.7495 
   19300    300.48429    -1144.045    6357.5004    11632.841    1932.9896 
   19400    292.91598   -1147.1582    6303.6663    11414.209    1827.9734 
   19500    303.32862   -1150.4845    6353.4876    11683.154    1904.8607 
   19600    298.94394   -1155.3562    6330.9389    11562.061    1926.7356 
   19700    302.45784   -1146.7997    6419.6825     11734.43     1899.626 
   19800    298.98417   -1149.2137    6358.5992    11596.724    1883.2124 
   19900     299.9436   -1153.4443    6294.7736    11549.164    1900.5334 
   20000    300.79172   -1143.3541    6368.8252    11651.425    1916.7158 
   20100    297.00832   -1140.0406    6342.9675    11548.054    1872.2477 
   20200    304.12171   -1148.4731    6390.5949    11739.216    1865.2618 
   20300     298.8072   -1145.4086    6383.2258    11621.374    1898.2177 
   20400    298.94861   -1142.4309    6292.0863    11536.234    1827.4082 
   20500    300.70926   -1140.8559    6361.2904    11644.627    1892.6227 
   20600    299.51026   -1134.4424     6393.754    11657.889    1871.7797 
   20700    303.84975   -1124.9958    6529.3966    11895.684    1884.6813 
   20800    301.25922   -1120.3945     6442.338    11757.884    1863.7921 
   20900    299.54816   -1117.4073    6366.9836    11648.963    1847.3887 
   21000    303.43588   -1107.0918    6398.0253    11773.375    1869.4563 
   21100    302.35684   -1109.3036    6495.9419    11846.028    1772.8489 
   21200     297.7863   -1109.9667     6494.405    11746.186    1731.9866 
   21300    300.45738    -1110.093    6433.6691    11742.387    1738.8404 
   21400    297.87424   -1110.5294    6427.0754    11680.172    1768.7737 
   21500     292.9117   -1112.2782     6458.341    11603.672    1774.7357 
   21600    301.06518   -1111.8846     6474.829     11794.74    1788.0087 
   21700    304.86415   -1111.8153    6405.6294    11806.769    1805.7449 
   21800    301.07548   -1110.2334    6387.9762    11709.758    1820.5564 
   21900    296.93469   -1110.8895    6456.7866    11689.451    1854.9291 
   22000    300.37283   -1109.8953    6491.1291    11798.238    1823.7145 
   22100    300.05889   -1111.7786    6354.6715    11653.191    1826.6724 
   22200    301.05152    -1106.697    6405.1091    11729.916     1878.317 
   22300     300.3027   -1115.0137    6437.2864    11737.779    1844.5817 
   22400    299.50328   -1113.3957    6290.6556    11575.688    1775.9243 
   22500    301.07307   -1109.5874    6546.1078    11868.485     1931.213 
   22600    296.26635   -1115.6598    6494.0098    11707.626    1943.1458 
   22700    302.20156   -1109.8898    6318.7516    11664.934    1886.3025 
   22800    304.19262   -1119.2083    6371.9867    11751.387    1918.9349 
   22900    298.32182   -1114.9094    6441.9074    11700.186    1984.1634 
   23000    297.54864   -1104.9071    6421.5698    11673.333    1919.1846 
   23100    302.68314    -1106.712    6494.5531    11854.202    1893.7023 
   23200    297.76878   -1106.7215    6448.4719    11703.123    1866.9188 
   23300    303.93005   -1103.4491    6388.5049    11778.055    1870.9827 
   23400    296.45184   -1105.1537    6459.0155      11687.1    1886.8279 
   23500     302.9204   -1107.0724     6356.083     11720.44    1830.6649 
   23600    293.95445    -1103.353    6425.2259    11601.759    1838.9966 
   23700    300.37887   -1103.2802    6497.7598    11811.613    1847.8035 
   23800    300.05718   -1104.3469    6521.5508    11827.465    1871.8575 
   23900    304.68141   -1105.2828     6457.868    11861.636     1855.579 
   24000    299.92526    -1102.801    6426.7532    11731.395    1853.8881 
   24100    296.70535   -1106.5405    6379.0619    11611.176    1766.8619 
   24200    302.98654     -1108.07    6589.9733    11954.746    1833.0672 
   24300    300.23821   -1114.0975    6492.9574    11792.989    1871.0899 
   24400    305.75297    -1116.219    6363.5745    11779.299    1848.6568 
   24500    300.25944    -1113.033     6414.404    11715.953    1813.6671 
   24600    297.59186   -1117.6657    6443.4051    11683.333    1836.9419 
   24700    301.92178   -1124.0837    6505.8013    11831.813    1865.2815 
   24800    299.52645   -1124.9152    6521.3092    11795.317    1845.8899 
   24900    297.06943   -1129.6354    6398.7494    11615.546    1819.8091 
   25000    294.75919   -1128.0268    6293.9071    11462.958    1844.8902 
   25100    301.09266   -1131.0949    6390.6242    11691.912    1911.8523 
   25200    302.17816   -1129.9603    6418.9861    11744.599    1839.3628 
   25300    302.48311   -1131.5432    6493.6844    11824.229    1884.0234 
   25400    299.08661   -1135.9243    6382.5651    11636.167    1908.8198 
   25500     296.7003   -1147.5833    6273.3215    11464.285    1832.0767 
   25600    299.48368   -1150.9727    6427.7439     11674.78    1859.8764 
   25700    301.49408   -1152.3683    6377.7106    11666.301     1807.105 
   25800    295.33116   -1155.6036    6386.3838    11540.077    1813.0706 
   25900    301.34939   -1158.0288    6425.4434    11705.282    1841.2727 
   26000    294.63105   -1157.9937    6384.0245    11520.371    1866.8653 
   26100    298.75697   -1154.4401    6329.9338    11557.978    1808.3459 
   26200    301.65796   -1155.3952    6316.8843    11605.949    1868.1247 
   26300    301.69648   -1152.3166    6369.3392    11662.305    1855.3618 
   26400    298.41839   -1151.2916    6425.7761    11649.736    1817.9679 
   26500    298.43856   -1158.9427    6415.0741    11631.813      1852.42 
   26600     300.9978   -1160.7008    6295.7924    11565.448    1819.2089 
   26700    300.23006   -1160.4394    6396.4107    11649.926    1820.5664 
   26800     297.7711   -1154.2296    6447.2905    11654.483    1804.8532 
   26900    306.19209   -1151.9153    6562.9642    11952.373    1931.7177 
   27000    297.96277   -1157.0387    6356.1222    11564.601    1902.1144 
   27100    301.26275   -1153.7325    6291.6372    11573.921    1839.9113 
   27200     298.8449   -1149.7807    6433.5194    11668.101     1820.761 
   27300    300.75127   -1157.6225    6436.0918    11703.559    1830.0404 
   27400    298.04566   -1145.0474    6324.9567    11547.197    1749.1673 
   27500    299.98512   -1154.8549    6405.5866    11659.454    1803.3437 
   27600    304.74139   -1154.4712    6381.2293     11737.09    1836.2284 
   27700    300.03731   -1147.1741    6380.1328    11642.795    1856.1457 
   27800    300.84343   -1148.7216    6476.2351    11754.572    1835.4681 
   27900    295.19757   -1148.9299    6435.5342    11593.048    1825.4121 
   28000    302.32313   -1143.1831    6311.8211    11627.308    1873.6965 
   28100    300.50292   -1143.0478    6334.6546    11611.391    1816.7378 
   28200    294.84424   -1136.7634    6417.2126    11579.344    1891.8564 
   28300     300.4593   -1143.0408    6417.7607    11693.572    1919.7955 
   28400    300.93294   -1144.2878    6327.3541    11612.037     1861.926 
   28500     298.4618   -1137.0081    6404.0053    11643.176    1861.5761 
   28600    300.94624   -1144.6253     6445.167    11729.796    1891.7026 
   28700     301.9458   -1143.1031    6353.3732    11660.879    1836.2908 
   28800    297.41754   -1138.4384    6453.4821    11668.913    1864.3936 
   28900    303.62497   -1141.9692    6451.4059    11795.918    1888.6565 
   29000    297.55667   -1143.1906    6347.1923    11560.843    1799.2883 
   29100    300.62532   -1137.3776    6419.1617    11704.183    1909.9151 
   29200    302.49223   -1142.6406    6385.1612    11704.803    1880.6978 
   29300    295.51081   -1141.0314    6429.5623    11601.666    1856.0943 
   29400    303.20648   -1144.6607    6455.7075    11788.588    1863.6716 
   29500    297.79708   -1141.8571    6279.2207    11499.341    1809.2279 
   29600     301.4507   -1143.8048    6424.9709    11721.198    1829.7048 
   29700    305.56763   -1142.8011    6570.0058    11955.188    1829.6283 
   29800    300.84793   -1142.2223    6576.5066    11861.439     1852.634 
   29900    303.40801   -1142.5348    6336.2443    11675.556    1845.6202 
   30000    301.46226   -1148.3047    6261.1491    11553.123    1840.1397 
   30100    297.39094   -1148.6176    6493.8261     11698.51    1846.1239 
   30200    302.60852   -1146.3571     6484.768    11803.178    1838.2738 
   30300    300.09833   -1152.3587    6432.7768    11691.559    1789.3552 
   30400    296.40055   -1158.5073    6298.6883    11472.324    1809.5702 
   30500    304.31247   -1159.4688    6371.3353    11713.035    1925.2068 
   30600    296.16058    -1150.085    6411.1191     11588.05    1856.3144 
   30700    301.32074   -1153.4175    6442.1622        11726    1893.0353 
   30800    302.56103   -1154.9746    6412.2066    11720.984    1963.9622 
   30900    308.36233   -1155.3366    6325.1499    11757.501    1937.1496 
   31000    299.11123   -1161.3933    6319.2087    11547.868     1886.383 
   31100    302.34261    -1163.843    6351.2814    11646.524    1876.0148 
   31200    299.02861   -1169.4127    6405.0271    11623.902    1805.2255 
   31300    300.21621    -1169.679    6420.1567    11664.136    1813.7134 
   31400    298.42323   -1171.7574    6466.6095    11670.207    1920.4792 
   31500    303.06091    -1169.746    6379.1224    11683.808    1859.1286 
   31600    299.05303   -1173.6002    6361.1102    11576.319    1853.8058 
   31700     302.6638   -1165.7712    6317.8296    11618.006    1923.1882 
   31800    295.89616    -1163.243    6351.5042    11509.629    1895.7863 
   31900    301.35221   -1164.9205     6372.978    11645.985    1851.5504 
   32000    294.13696   -1160.1153    6435.5202     11559.19    1920.7447 
   32100    301.10675   -1161.3932     6338.952    11610.242    1832.7658 
   32200    300.94007   -1159.5264    6385.7547    11655.351    1802.9415 
   32300    294.76403   -1154.9893    6420.2149    11562.407    1860.1621 
   32400    299.84019   -1150.2033    6436.0478     11691.47    1858.2755 
   32500    304.30763   -1152.6094     6526.334     11874.79    1849.2073 
   32600    302.79298   -1147.3148    6458.8738    11780.266    1846.2408 
   32700    298.25701   -1137.4988    6374.1955      11608.5    1851.6587 
   32800    302.75413   -1136.0171    6452.4294     11784.29     1860.033 
   32900    302.43712   -1131.1695    6485.2608    11815.196    1824.9382 
   33000    300.21619   -1135.1444    6508.4602    11786.974    1841.7562 
   33100    301.49961   -1134.4675    6375.2653    11681.874    1810.3911 
   33200    295.93876   -1129.4578    6558.5858    11751.406    1828.6494 
   33300    302.62842   -1127.8093    6492.7543    11830.137    1851.4697 
   33400    293.35792   -1128.7435     6364.808    11503.206    1819.4312 
   33500    298.19769   -1123.1067    6408.3855    11655.815    1819.1694 
   33600    301.61147   -1126.7548    6415.4662    11732.178    1859.7497 
   33700    298.22765   -1127.6824    6469.4479    11712.942    1896.2552 
   33800    296.01359   -1130.6726    6384.9522    11578.156     1790.316 
   33900    302.87771   -1132.2867    6443.8416    11782.072    1849.1974 
   34000     302.6643   -1133.3108    6393.7228     11726.37    1943.7481 
   34100    302.45329   -1134.1374     6380.315    11707.628     1892.891 
   34200    297.38995   -1142.2655    6339.4058     11550.42    1856.8018 
   34300    298.86162   -1146.7433    6513.8541    11751.831    1952.3048 
   34400    297.73625   -1142.1662    6352.2762    11570.788    1820.3611 
   34500    296.26966   -1149.2085    6358.2837    11538.422    1840.2569 
   34600    300.50725   -1156.9813     6312.625     11575.52    1853.4763 
   34700      301.062   -1154.6873    6384.4646    11661.505    1933.0278 
   34800    296.20286   -1159.9495    6362.2868    11530.257    1917.7023 
   34900    302.21836   -1165.2274    6377.1669    11668.371    1975.6386 
   35000    302.13044   -1163.4174    6397.4508    11688.587     1930.311 
   35100    300.68382   -1157.5766    6418.0736    11684.146    1888.9548 
   35200    302.77156   -1161.7809    6321.9832    11628.452    1917.9514 
   35300    297.28725   -1158.9494     6354.849    11546.986    1937.6484 
   35400    302.60764   -1156.4795    6349.0151    11657.284    1856.4456 
   35500    295.23756   -1154.0415    6360.1245     11513.38     1884.353 
   35600     307.0548   -1150.1284    6472.2486    11881.875    1920.0493 
   35700    295.12656   -1154.8538    6387.4297    11537.502     1832.684 
   35800    302.91508   -1150.7852    6365.0778    11685.608    1858.9898 
   35900    298.87834   -1155.5814    6354.6952    11584.191     1897.676 
   36000    299.86719   -1152.9961    6413.8417    11667.048    1908.3533 
   36100     305.2805   -1149.0375    6465.4071    11838.219    1908.2405 
   36200    297.48075   -1145.6498    6423.3723    11632.942    1886.1462 
   36300    301.38185   -1137.2917    6474.7816    11776.051    1869.0287 
   36400    307.20894   -1136.7553    6417.1242    11843.417    1803.1693 
   36500    299.23252   -1134.7984    6413.2067    11671.052    1918.4115 
   36600    298.92844   -1129.1479      6377.89     11634.89    1932.2571 
   36700    300.50442   -1125.5637    6530.4185    11824.671    1948.2321 
   36800    303.36878   -1127.4092    6515.8227    11869.422    1943.8541 
   36900    299.35236   -1123.5701    6404.3408    11675.975    1885.5184 
   37000    302.62816   -1124.1167    6527.9698    11869.039    1951.8395 
   37100    298.28562   -1130.2756      6411.48    11653.619    1848.0386 
   37200    304.28108   -1132.1203    6384.6771    11753.055    1889.8323 
   37300    298.58067   -1134.1432    6376.2605    11620.835    1871.2974 
   37400     298.6253   -1136.4251    6389.3942    11632.641    1816.1696 
   37500    298.39084   -1140.3032    6521.7463    11756.105     1901.439 
   37600    306.92842   -1146.0474    6505.2257    11916.233    1879.8583 
   37700    298.39495   -1148.0313    6475.9291    11702.648    1914.4569 
   37800    307.69528   -1152.5515    6285.8911    11706.777    1866.5458 
   37900    296.12445   -1159.5176    6462.5931     11629.32    1877.0769 
   38000    298.94279   -1155.2263    6298.5974    11529.825    1804.4194 
   38100    304.31648   -1157.6448    6490.2821    11833.892    1903.9239 
   38200     305.3302   -1160.6247    6520.1295    11882.416     1906.262 
   38300    302.26831   -1161.5574    6391.5826    11687.524    1836.3047 
   38400    298.12508   -1162.6331    6300.7869    11507.139    1866.3306 
   38500    300.54527   -1160.7262    6416.3957    11676.358    1919.8381 
   38600    299.24651   -1162.2858    6401.8066    11632.463     1856.889 
   38700    297.22133   -1163.0696    6382.7682    11569.376    1837.6566 
   38800    299.78943   -1159.6048    6492.8824    11737.819    1934.9037 
   38900    301.02029    -1156.784    6408.9609    11683.014     1878.487 
   39000    296.62857   -1165.8166    6340.4566    11511.654    1930.1139 
   39100     302.3808   -1160.2242    6368.1461    11667.824    1951.4303 
   39200    296.57338   -1162.7202    6510.9499    11684.065    1968.7604 
   39300    295.84689   -1159.0145    6462.9928    11624.293    1847.5823 
   39400    299.26412   -1154.4219    6397.7808    11636.678    1810.9031 
   39500    302.12294   -1144.4854    6379.2568    11689.164    1812.7735 
   39600    299.20169   -1144.3524    6395.0955    11642.728     1866.629 
   39700    299.10081   -1144.6284    6444.1226    11689.324    1849.3765 
   39800    300.64782   -1140.0973    6515.3998    11798.182    1834.0319 
   39900    300.59028   -1136.8781    6362.7144    11647.486    1855.3974 
   40000    300.26054   -1136.7112    6501.8773    11779.772    1930.4577 
   40100    297.95643   -1139.0618    6467.5132    11693.833    1907.9561 
   40200    304.91215   -1136.9368    6393.1779    11770.221    1858.6197 
   40300    297.57449   -1133.8241    6395.3121     11618.71     1872.656 
   40400    298.70089   -1135.1155    6399.1657    11645.336    1813.4104 
   40500    301.06453   -1135.1799    6540.6689    11837.271    1860.8426 
   40600    299.52592   -1138.8782    6426.2439    11686.277    1836.2885 
   40700     300.0275   -1140.0984    6388.3998    11657.928    1797.1666 
   40800    301.00846   -1144.3014    6482.6038    11768.886    1855.3553 
   40900    300.21947   -1147.9242    6579.3106    11845.115    1924.9346 
   41000    305.07433   -1151.8124     6344.841    11710.473    1869.7823 
   41100    302.56954   -1152.1624    6385.0186     11696.79    1933.6142 
   41200    301.12797   -1150.3026    6461.0823    11743.917    1910.9241 
   41300    297.41947   -1157.9438    6376.7964    11572.763    1831.6191 
   41400    294.72495    -1159.834    6438.4757    11574.988    1925.7843 
   41500    300.43626    -1164.127     6384.659    11638.892    1940.4173 
   41600    293.87926   -1166.5037    6442.9219    11554.698     1966.944 
   41700    300.96926   -1174.6264    6361.6451    11616.765    1889.8101 
   41800    301.22283   -1163.9377    6428.0646     11699.29    1905.1373 
   41900    298.60362   -1167.4244    6529.7406    11741.524    1894.1516 
   42000    302.90778   -1165.2085    6420.3335    11726.285    1891.0076 
   42100    301.50238   -1170.1534    6340.2897    11611.272    1904.0034 
   42200    303.95801   -1168.0552    6440.1935    11765.735    1968.2006 
   42300    297.75346   -1164.7715    6431.3453     11627.62    1926.0838 
   42400    301.68173   -1164.9299    6264.5918    11544.629    1858.3902 
   42500    299.20775   -1171.6413    6499.0781    11719.551    1964.5282 
   42600    297.96772   -1168.3325    6442.9102    11640.201    1874.5811 
   42700    301.88842   -1168.8183    6382.4099    11662.975    1845.7593 
   42800     304.1354   -1167.4014    6384.2346    11714.219    1971.0589 
   42900    303.21474   -1163.6194    6470.0774    11784.176    2053.5006 
   43000    299.23131   -1155.2662    6447.4208    11684.772    1962.0237 
   43100    297.89346    -1154.016     6342.939     11552.96    1894.8096 
   43200    301.22571   -1155.0099    6492.8328    11773.048    2020.1187 
   43300    296.59153   -1155.7539    6405.0075    11585.476    1919.9002 
   43400    300.71462   -1155.4509    6455.9388    11724.794    1869.4727 
   43500    300.28304   -1154.4231    6480.9955    11741.659    1824.0861 
   43600    296.58322   -1156.9628    6586.2773     11765.36    1935.6023 
   43700    296.45002   -1149.0343    6366.2611    11550.427    1876.0454 
   43800    303.53288   -1149.2115    6399.5367     11734.84    1906.1595 
   43900    297.45231   -1144.6961    6493.4955    11703.412    1953.7384 
   44000    302.51351   -1142.0979    6415.1732    11735.812    1891.7257 
   44100    300.96238   -1147.2742     6381.497    11663.822    1925.6066 
   44200    299.52636   -1152.8536    6542.4266    11788.494    1978.8276 
   44300    302.37362   -1148.1514    6388.2073    11699.804    1812.6495 
   44400    303.13977   -1151.7045    6337.1964    11661.608    1830.9348 
   44500    296.77388   -1149.3102    6383.3943    11574.203    1877.2097 
   44600    296.41212   -1139.8972     6468.488    11660.981    1840.0023 
   44700    300.11154   -1154.8732    6420.3548    11676.904    1823.7224 
   44800    304.85692   -1149.1423    6483.8277    11847.486    1869.0828 
   44900    300.46069   -1147.1119    6422.0471    11693.817    1882.7566 
   45000    302.30622    -1159.337    6400.2723    11699.244    1896.6972 
   45100    294.20432   -1152.3233    6374.3816    11507.282    1850.1506 
   45200    302.45252   -1155.1936    6455.1732    11761.414    1892.8462 
   45300    295.46796     -1160.04    6341.7657    11493.945    1894.8721 
   45400    303.49456   -1155.6449    6428.6102    11756.661     1918.277 
   45500    304.18107   -1154.8341    6437.0126     11780.54    1921.7011 
   45600    296.00614   -1153.1652    6421.6627    11592.215    1970.3872 
   45700    303.24889   -1156.5406    6384.4223    11706.329     1898.564 
   45800    301.00892   -1154.9164    6446.6853    11722.363    1949.0724 
   45900    304.06174   -1155.5377    6378.2261    11718.501    1886.7481 
   46000    297.22332    -1153.112    6348.9529    11545.561     1881.812 
   46100    297.26104   -1154.0868    6380.9082    11577.347    1880.9582 
   46200    302.90355   -1152.9426    6415.3495    11733.477    1905.2256 
   46300    300.54112   -1151.8517    6471.1323    11739.881     1874.647 
   46400    298.98263   -1152.3209     6391.283    11626.267    1826.1581 
   46500     299.4621   -1152.0006    6364.4079    11609.956    1791.9636 
   46600    300.70741   -1150.5188    6347.7625    11621.396    1895.0614 
   46700    295.73646   -1149.1186     6448.581    11617.418    1903.4477 
   46800    303.95659   -1151.9268    6511.1189    11852.758    1888.0052 
   46900    300.29098   -1147.6336    6396.4894    11664.112    1837.7146 
   47000    302.55421   -1155.0015    6322.0197    11630.625    1856.6992 
   47100    297.31934    -1152.404    6526.2281    11725.596    1952.4453 
   47200     302.4625   -1153.7375    6377.1005     11685.01    1869.7596 
   47300    297.28631   -1152.4392     6385.751    11584.378    1807.8781 
   47400     300.4789   -1150.9115    6462.2906     11730.65    1872.9953 
   47500    305.54279   -1151.8128    6370.9125    11746.553    1815.1718 
   47600    299.54884    -1157.856    6414.8669    11656.412    1830.7316 
   47700    299.27477   -1152.3153    6452.9095     11694.14    1939.6292 
   47800    302.51562   -1153.3298    6382.9826    11692.435    1828.3827 
   47900    304.54362   -1154.6474    6488.1674    11839.627    1878.7821 
   48000      299.131   -1154.7929    6401.8099    11637.492    1897.1474 
   48100    299.24167   -1160.4119    6399.9209    11632.348    1908.8507 
   48200    294.51646   -1156.8009    6343.5776    11478.669    1844.4183 
   48300    302.19621   -1158.8694    6428.3035    11725.392    1811.9704 
   48400    297.49713   -1162.6262    6464.9771    11657.921    1834.0852 
   48500    299.01414   -1162.8974    6384.7898    11609.871    1824.6254 
   48600    301.23835   -1158.4105    6306.0419    11583.127    1758.2142 
   48700    299.66805   -1158.6142    6449.2287    11692.563    1849.3638 
   48800    304.25414   -1160.6531    6397.9304      11737.2    1883.6022 
   48900    294.60887   -1159.7135    6320.1027    11454.256    1764.0428 
   49000     308.4251   -1165.2684    6401.7742    11825.535    1782.5249 
   49100    297.31179   -1161.6085    6604.2121    11794.214    1836.4581 
   49200    301.15595   -1166.8816    6427.4229    11694.276    1831.1997 
   49300    301.06193   -1164.2673    6267.7162    11535.175    1790.3519 
   49400    301.19314   -1166.6888    6444.2207    11712.061    1869.4609 
   49500    299.88477   -1160.8362    6497.2105    11742.952    1829.6654 
   49600    298.96454   -1167.5901    6368.1791    11587.508    1837.5436 
   49700    299.94565   -1160.2375    6468.5157    11716.157    1926.1802 
   49800    298.47014   -1164.9048    6268.0001    11479.452    1788.9967 
   49900    304.22152   -1161.6197    6469.2842     11806.89    1875.4106 
   50000    298.30714   -1165.1485    6407.8466    11615.572    1829.4096 
   50100    299.45929   -1160.9827    6475.9433    11712.449    1817.5316 
   50200    303.87811   -1163.8646    6571.3965    11899.422     1839.904 
   50300    295.46676   -1161.1905    6434.7228    11585.726    1853.0403 
   50400    298.34596   -1163.0107    6266.9214    11477.614     1839.462 
   50500    298.26675    -1155.357    6353.7284    11570.383    1826.8845 
   50600    296.05419   -1148.9914    6506.5734    11682.326    1920.1804 
   50700     304.9385   -1151.9959    6311.9832     11674.53    1812.8191 
   50800    297.46537   -1150.8955    6427.0829    11631.079    1854.1757 
   50900    304.88215   -1149.5886    6429.9319    11793.683    1857.1509 
   51000    298.03528   -1147.7435    6413.2256    11632.549    1849.3393 
   51100    297.45418   -1152.9425    6374.1344    11575.844    1792.3888 
   51200    302.46168   -1151.2764    6520.6152    11830.968    1870.1316 
   51300    299.23317   -1152.7017    6455.7132    11695.669    1854.4248 
   51400    299.31417   -1148.9344    6481.2849    11726.739    1874.5604 
   51500    302.82743   -1143.8739     6418.781     11744.35    1868.2558 
   51600    297.35953   -1143.7923    6405.0167    11613.855    1892.2147 
   51700    301.54906   -1142.6257    6554.5848    11854.092    1912.1581 
   51800    301.11158   -1142.9688    6446.5024    11736.321    1866.7912 
   51900    301.36557   -1148.1639    6324.9647    11615.014    1811.9577 
   52000    300.13426   -1146.6787    6463.9928    11729.222    1876.6114 
   52100    302.36505   -1154.4484    6387.6293    11692.746    1838.2791 
   52200    303.00408   -1152.6564     6438.621    11759.182     1842.313 
   52300    296.69643   -1155.1815    6493.9324    11677.215    1836.8959 
   52400    304.54754    -1151.702    6418.1947    11772.684    1841.3858 
   52500    297.06051   -1157.3251     6356.328    11545.245      1785.38 
   52600    300.90588   -1157.1316    6523.9733    11795.234    1891.6624 
   52700    296.01643     -1148.92    6395.0961    11570.113    1906.2057 
   52800    302.30033   -1154.1259    6301.5261    11605.583    1917.9286 
   52900    299.36141   -1155.3733    6418.9457     11658.97    1993.7301 
   53000    300.44404   -1158.8743    6420.7959    11680.448    1933.6864 
   53100    299.12305   -1161.7631    6441.1848    11669.727    1879.9308 
   53200    300.81869   -1157.4149    6414.1561    11683.271    1896.1362 
   53300    302.56364   -1167.4401    6426.5394    11722.907     1928.077 
   53400     298.6181   -1158.4781    6444.0861    11665.126    1880.6787 
   53500    300.68297   -1155.9496    6482.5256    11750.206    1948.7631 
   53600    293.58332   -1156.8253    6372.2124    11487.344    1914.8867 
   53700    298.56079   -1150.2629    6321.2628    11549.293    1890.4705 
   53800    303.81529   -1155.6295    6523.1263    11858.044     1975.592 
   53900    296.63238    -1153.617    6535.5158    11718.994    1965.8248 
   54000    299.37701   -1156.6143    6459.6271    11698.743    1868.4182 
   54100    303.88364   -1151.4683    6429.3255    11769.865    1962.4875 
   54200    296.08302   -1151.7255    6375.8289    11549.463    1941.5001 
   54300    298.58034   -1150.7796    6380.7048    11608.636    1900.7803 
   54400    301.21117   -1150.9931    6537.6117    11821.533    1961.4846 
   54500    299.06663   -1148.6336    6430.7605    11671.227    1882.3003 
   54600    297.93618   -1148.8807    6357.1934    11573.262    1855.1871 
   54700    307.02394   -1146.0631    6443.2577     11856.29    1832.1173 
   54800    301.72553   -1147.6925     6433.914    11732.124    1876.9656 
   54900    299.63699   -1150.7731    6474.2166    11724.728    1938.3047 
   55000    294.77462   -1146.8719    6419.2741     11569.81    1847.4832 
   55100    301.61542   -1151.0655    6432.8869    11725.372    1736.4083 
   55200    299.47312   -1155.6451    6563.1121    11805.251    1841.9866 
   55300    303.35397    -1157.851    6437.1026    11759.944    1856.1977 
   55400    300.64892    -1157.063    6308.5058    11574.346    1776.3818 
   55500    296.67616   -1153.1111    6471.1665    11656.086    1819.6813 
   55600    297.03102   -1160.2299    6524.7391    11710.121    1825.8558 
   55700      304.261   -1166.0696    6365.0098     11699.01    1824.8281 
   55800    299.19962   -1160.0863    6312.1105    11543.965    1867.4903 
   55900    300.10098   -1169.4102    6306.7529     11548.54    1888.1516 
   56000    294.74716   -1174.5778    6420.5078    11542.751    1821.3746 
   56100     303.6236   -1167.6541    6426.0609    11744.859    1835.7134 
   56200     303.7207   -1169.9922    6504.6349    11823.169    1909.5676 
   56300    299.75268   -1168.2538    6464.8031    11700.305    1905.8421 
   56400    296.39973    -1171.066    6336.9154    11497.975    1854.6808 
   56500    297.89552   -1162.5451    6377.1034    11578.639    1889.6476 
   56600    299.23521   -1167.1872    6415.6427    11641.157    1917.6838 
   56700    302.30323   -1167.4015    6442.6774    11733.521     1940.754 
   56800    298.72037    -1167.891    6368.8672    11582.679    1895.3921 
   56900    300.15244   -1163.1006    6399.7895    11648.985     1875.203 
   57000    298.71334   -1160.7938    6405.0666    11625.825    1836.4544 
   57100     298.4106   -1157.3158    6476.2444    11694.013    1903.8778 
   57200    301.72211   -1158.4975    6407.4004    11694.733    1880.4202 
   57300    296.77344   -1152.9976    6390.2022    11577.314     1845.696 
   57400    302.76037   -1152.4406    6395.9264    11711.496    1851.3228 
   57500    301.03111   -1148.2717    6490.1077    11772.904     1945.451 
   57600     301.3003   -1149.6181    6368.2831    11655.484     1898.212 
   57700     296.3114   -1145.6137    6404.2824    11588.907    1821.9598 
   57800    300.20778   -1143.9281    6451.5267    11721.077    1794.8802 
   57900    302.98925   -1146.6619    6536.2352    11862.474    1819.8586 
   58000    301.23299    -1142.805    6460.3015    11752.877    1811.9818 
   58100    296.88706    -1139.097    6390.0609    11593.501    1812.1417 
   58200    298.89406     -1137.93    6369.0627    11616.546    1797.1679 
   58300    304.18687   -1142.2657    6488.4178    11844.638    1883.6623 
   58400    299.23738   -1143.6676    6593.5455    11842.625    1921.9821 
   58500    302.46182   -1147.3361    6395.3817    11709.678    1838.0983 
   58600    299.21085   -1152.9519    6286.4615     11525.69     1771.171 
   58700    302.84657   -1155.3159    6602.6062    11917.143    1889.4506 
   58800    295.60634   -1149.7241    6451.3681     11616.82    1845.1254 
   58900    303.37903   -1152.3433    6348.7994    11677.684    1939.0288 
   59000    299.21314   -1153.6223    6398.9804    11637.588    1939.2257 
   59100    303.66877   -1158.0304    6508.7511    11838.138    1989.1412 
   59200    297.40983   -1160.8513    6378.9821    11571.835    1893.3107 
   59300    304.97801   -1167.8968    6383.2624    11730.753    1887.0451 
   59400    300.16125    -1162.841    6366.5374    11616.181    1832.2695 
   59500     299.1488   -1167.1934    6339.6206    11563.282    1813.4995 
   59600    303.07915   -1173.8117    6374.4649    11675.474    1857.9361 
   59700    292.45847   -1170.6733     6392.706    11469.959    1875.3912 
   59800    300.74046   -1172.6214     6357.849    11610.086    1876.3475 
   59900    300.81166   -1172.9003    6429.6458    11683.125    1884.3952 
   60000    293.77143   -1162.7993    6466.2798    11579.456      1861.93 
   60100    301.38068   -1165.1531    6473.7248    11747.108    1866.0549 
   60200    298.01821   -1168.0822    6317.8792    11516.499    1856.9011 
   60300     301.5198   -1171.5683    6338.2735    11608.213    1930.4744 
   60400    296.81801   -1173.6141     6477.622    11645.069    2001.2511 
   60500    305.99014   -1169.7721    6416.8937    11784.131    1871.2643 
   60600    303.69637   -1171.8722    6424.0758    11740.211    1933.7568 
   60700    300.69044   -1161.6591    6554.7543    11816.885     2005.333 
   60800    297.24593   -1159.5526    6361.5168    11552.167    1814.4118 
   60900    299.02045   -1154.5004    6438.2845    11671.897    1876.8879 
   61000    304.92623   -1152.3394    6399.4523    11761.394    1893.3349 
   61100    298.88256   -1153.2656    6431.9577    11663.859    1874.5361 
   61200    302.49161   -1154.8564    6396.7524    11704.165    1816.4958 
   61300    298.97907   -1147.8103    6535.8313     11775.25     1873.582 
   61400    299.37896   -1149.0957    6446.3836     11693.06    1853.1033 
   61500    304.68013   -1154.4314    6403.9011    11758.493    1803.6708 
   61600    298.01947   -1152.7129    6511.6847      11725.7    1889.9102 
   61700    305.43532   -1145.7808     6498.642    11878.018    1874.0711 
   61800    300.65899   -1146.9016    6448.1342    11724.351    1878.5782 
   61900    297.05125   -1149.2817    6459.7136    11656.476    1862.5402 
   62000    304.03899   -1148.7368    6467.4842    11814.074    1826.0711 
   62100    301.47418   -1149.7169    6483.3365    11774.153    1857.9573 
   62200    295.66051   -1151.4136    6420.9419    11585.861     1867.264 
   62300    302.47547   -1152.5714    6445.0772     11754.43    1867.9889 
   62400    308.39537   -1161.5768    6327.9524    11754.769    1846.6459 
   62500    298.96173   -1159.4652    6393.2043    11620.598    1839.9998 
   62600     303.1228   -1157.6428     6507.263    11825.374    1904.8097 
   62700    296.59546   -1163.8644     6457.588    11630.031    1882.6881 
   62800    303.27989    -1161.396    6374.3974    11692.111    1928.0704 
   62900    299.97806   -1161.5156    6423.6225    11670.678    1975.5545 
   63000    299.82365    -1163.144    6456.3446    11698.473    1961.1556 
   63100    300.02657   -1166.1142    6372.9102    11616.403    1951.4446 
   63200    299.54855   -1166.5277    6354.8885    11587.756    1935.4604 
   63300    304.19238   -1163.6476    6438.4818    11773.438    1987.6598 
   63400    298.26603   -1164.1274    6482.0128    11689.881    1918.1292 
   63500     302.1214   -1169.4659     6413.734    11698.628    1989.3625 
   63600    298.46771   -1168.8165    6336.4653    11543.953    1909.8493 
   63700    299.48814   -1163.8084    6430.9117    11665.208    1931.5311 
   63800    300.04847   -1170.2831    6370.9143    11610.706    1848.8985 
   63900    298.56127   -1163.6739    6466.3167    11680.946    1919.7049 
   64000    301.82969   -1164.6853    6409.5676     11693.01    1854.7568 
   64100    295.87377   -1158.5812    6383.9775    11546.285    1886.8582 
   64200    303.01678   -1163.0022    6405.7675    11716.254    1949.8351 
   64300    297.12367   -1160.2549    6287.3142    11474.651    1812.7734 
   64400    293.63634   -1161.1077    6506.5981     11618.58    1887.3767 
   64500    302.59916   -1154.7936    6441.1916    11750.965    1893.5501 
   64600     297.0643   -1156.4677    6372.8578    11562.713    1833.0425 
   64700    299.39296   -1164.5015    6381.7443    11613.314    1868.1044 
   64800    297.15125   -1160.6663    6614.5596    11802.074    1930.5391 
   64900    298.35277   -1154.7009    6384.1249    11603.273    1732.7943 
   65000    299.09485   -1157.7297    6474.4665    11706.439    1957.9135 
   65100    299.95727   -1161.3616    6397.7979    11644.563    1943.7451 
   65200    297.28506    -1156.698    6411.4883    11605.829    1941.0405 
   65300    299.72843   -1150.9179    6348.5386    11600.859    1891.0121 
   65400    299.37301   -1150.5253    6397.4968    11642.617    1885.8599 
   65500    299.00246   -1161.7669    6502.9463    11728.908    1913.1295 
   65600    302.37097   -1151.3979    6441.0916    11749.386    1869.3741 
   65700    298.24904   -1156.4871    6363.3339     11578.48    1848.5586 
   65800    303.01664   -1162.2556    6498.8135    11810.044    1854.2847 
   65900    302.93107   -1163.5711     6417.562    11725.648    1851.4406 
   66000    297.16215   -1159.3103    6473.6973      11662.8    1875.0152 
   66100    301.40567   -1159.7358     6441.594    11720.928     1808.533 
   66200    303.80778   -1160.9387    6486.9826    11816.431    1837.3194 
   66300    298.07019   -1159.9847    6376.9541    11584.782    1898.3423 
   66400     303.9965   -1156.4143    6502.5364    11840.541     1972.595 
   66500    300.65248   -1162.3633    6337.3436    11597.959    1824.0196 
   66600    298.36957   -1163.4178     6422.613    11633.403     1842.428 
   66700     303.5395   -1155.8657    6490.3703     11819.16    1861.2071 
   66800    298.78281   -1157.1729      6474.61    11700.473    1927.2533 
   66900    300.67133   -1163.4654    6374.3361    11634.252    1926.1615 
   67000    298.83863   -1165.6072    6359.5178    11578.139    1872.7397 
   67100    297.55164   -1163.0156    6422.6109    11616.329    1800.9173 
   67200    304.86108   -1156.1158    6584.6351    11941.408    1900.3701 
   67300    297.03203     -1155.66    6463.0746    11653.048    1893.5222 
   67400    303.17816   -1154.2794    6379.1372    11701.794    1906.9919 
   67500    300.44759   -1154.6183    6434.5413    11698.525     1904.016 
   67600    301.10923   -1155.0838    6454.6799    11732.333    1964.6929 
   67700    301.11155   -1161.4854    6348.7598    11620.061    1885.9809 
   67800    297.60598   -1154.0019    6432.4817    11636.375    1818.4847 
   67900    306.04147   -1151.3851    6496.5186     11883.24    1847.4516 
   68000    303.73214   -1157.5651    6370.8422    11702.048    1824.4012 
   68100    302.11878   -1155.6056    6433.8304    11732.529    1820.8226 
   68200    294.56712   -1155.8957    6342.4673    11479.546    1865.4122 
   68300    303.60563   -1152.2204    6398.7814    11732.629    1888.0766 
   68400    299.94635   -1158.1386    6425.3215    11675.076    1790.1379 
   68500    300.84094   -1154.5452    6475.5307    11747.991    1920.3792 
   68600    296.94202     -1153.93     6360.495    11550.276     1924.611 
   68700    302.02064   -1152.7461     6349.136    11648.598    1902.0542 
   68800     299.2074   -1162.3205    6493.6142    11723.401    1873.3757 
   68900    303.14813   -1155.5952    6377.9641    11698.663    1824.7507 
   69000    296.42945   -1163.5356    6467.4608    11636.686    1831.4432 
   69100    299.57277   -1159.0886    6359.8433    11600.667     1746.528 
   69200    298.75255   -1162.4382    6468.1833    11688.135     1877.279 
   69300    299.28989   -1164.4508    6401.5069    11630.925    1869.6267 
   69400    297.66368   -1161.8854     6352.485    11549.727    1815.7419 
   69500    303.55576   -1161.3111    6525.3014    11848.993    1843.9764 
   69600    296.70738   -1169.8368    6481.8939    11650.755    1870.7992 
   69700    304.70223   -1165.7584    6349.5561    11693.293    1854.5769 
   69800    296.35105   -1168.6005    6439.9351     11602.42    1900.6456 
   69900    301.94018   -1166.2177    6461.2524    11745.523    1924.7409 
   70000    296.49701   -1162.7123    6374.5245    11546.016    1794.2696 
   70100    297.97575   -1162.8344    6452.4505    11655.411    1906.7159 
   70200    292.73116   -1162.7917    6318.4755    11409.436    1835.7932 
   70300      301.134    -1161.814    6450.6007    11722.053    1880.9886 
   70400    299.01445   -1167.0005     6512.695    11733.679    1925.0662 
   70500    303.52034   -1171.0368    6321.9007     11635.11    1868.5878 
   70600    296.31012   -1164.9232     6285.758    11451.046     1863.055 
   70700    296.91611   -1163.2799    6397.7999    11577.677    1909.7283 
   70800    300.93977   -1161.1561    6450.4186    11718.379    1916.2601 
   70900    298.20402   -1156.3463    6519.4179    11733.743    1855.4387 
   71000    302.41887   -1158.4829    6401.1078     11703.34    1831.0506 
   71100    300.43606   -1158.5664     6378.988    11638.777    1862.4958 
   71200    298.91464    -1158.493    6362.4013    11589.761    1809.2496 
   71300    299.47668   -1156.6631    6344.3556    11585.552    1772.0216 
   71400    300.03851   -1151.1843    6530.8037    11789.482    1897.7865 
   71500     295.9001   -1153.3509    6389.6835    11557.784    1838.2099 
   71600    300.09515   -1158.0658    6391.5318    11644.538    1846.2676 
   71700    298.56701   -1152.0425     6487.186     11713.57    1846.3101 
   71800    304.01255   -1150.5769    6501.5013    11845.686    1864.5672 
   71900    298.03687   -1157.6517    6366.2705    11575.719    1781.0282 
   72000    297.73692   -1151.8548    6415.2143    11624.052    1826.0827 
   72100     300.9983   -1152.3837    6471.5761    11749.559    1849.7495 
   72200    301.46925    -1151.566    6418.5325    11707.394    1816.3746 
   72300    298.91409   -1153.6994    6451.1809    11683.322    1864.2155 
   72400     299.5968   -1150.6655    6452.4218    11702.182    1848.7685 
   72500    302.59824    -1157.948    6540.9814    11847.581    1893.4607 
   72600    298.52596   -1158.4639    6438.2257    11657.311    1898.1188 
   72700    298.32648    -1162.424    6384.3775    11595.241    1861.9276 
   72800    299.09913    -1157.192    6447.6618    11680.264    1871.1864 
   72900    303.27665   -1161.7235    6527.9641    11845.281    1905.0326 
   73000    296.83825   -1167.9153    6365.2866    11538.865    1850.8274 
   73100    299.49748   -1169.8707    6367.6885    11596.122    1861.3164 
   73200    301.65991    -1166.959    6388.4327    11665.975    1817.2558 
   73300    295.26052   -1172.5169    6450.9192     11586.19    1896.7527 
   73400    303.24514   -1169.3321    6367.0616    11676.097    1874.6234 
   73500    297.58341   -1167.7227    6358.5926    11548.283    1845.2397 
   73600    301.23414   -1164.2348    6351.7658    11622.936    1851.8058 
   73700    294.36858   -1168.1559    6461.9924     11582.57    1914.2263 
   73800     303.2917   -1168.5034    6359.9882    11670.847    1887.9318 
   73900    299.33559   -1167.7826    6493.1643    11720.227    1900.4955 
   74000    303.31385   -1172.2601    6487.2447     11794.82     1907.702 
   74100    298.70148   -1166.3918    6387.8668    11602.774    1915.2242 
   74200    302.21556   -1171.3812    6427.1812    11712.172    1938.5862 
   74300    299.03891   -1165.8191    6358.5447    11581.233    1884.1417 
   74400    306.61258   -1164.4443    6447.6883    11833.551    1907.2429 
   74500    298.33426   -1164.4555    6464.7184    11673.717     1932.979 
   74600    303.41359   -1161.3808    6282.9722    11603.557    1890.1257 
   74700    295.90963   -1162.9901    6366.5993    11525.264    1900.3968 
   74800     302.8714   -1159.2285    6445.2847    11756.439    1916.0033 
   74900    295.75092   -1156.2122    6319.4311    11481.484    1791.3069 
   75000    304.03085   -1161.3301    6356.3891    11690.212    1824.9938 
   75100    297.09148    -1153.457    6532.4203    11725.867    1854.5768 
   75200    302.42653   -1151.1037    6496.9449     11806.72    1839.4933 
   75300     299.0217   -1157.9998    6495.9367    11726.077    1836.5611 
   75400     297.6974    -1153.341    6411.0089    11617.516    1907.3874 
   75500    300.97723   -1159.0025    6349.9133    11620.828    1854.1379 
   75600    305.50028   -1154.5201    6466.8146    11838.839    1881.8374 
   75700    297.91779   -1153.4854    6436.5587     11647.63    1806.5486 
   75800    300.58029   -1154.3299     6392.434    11659.541     1828.548 
   75900    303.47105   -1158.7508    6527.5126    11851.955    1974.4732 
   76000    302.05539   -1157.2888    6360.3979    11656.059    1922.7125 
   76100    301.83751   -1160.3649    6366.9536    11654.884     1857.364 
   76200    297.30198   -1158.2304    6432.7365    11625.907    1807.1338 
   76300    301.93721   -1161.3331    6486.1219    11775.214    1871.9961 
   76400    295.84775   -1167.0955    6483.1949    11636.433    1943.2432 
   76500    298.92503   -1165.1404    6285.1248    11506.059    1893.6815 
   76600    301.96812   -1165.3222    6408.6721    11694.435    1860.1561 
   76700    303.62741   -1164.3155    6475.9281    11798.146    1903.3612 
   76800    297.76931   -1172.1212    6426.3283    11615.591    1913.2793 
   76900    299.89591   -1165.4883    6400.5291    11641.857    1902.6881 
   77000    302.85931   -1169.8188    6417.1001    11717.406    1913.6921 
   77100    295.95254   -1169.9706    6404.2621    11556.863    1912.8639 
   77200    295.06021   -1170.0086    6522.6441    11656.144     1917.499 
   77300    303.48076   -1170.0621     6369.003    11682.342    1793.6882 
   77400    296.61477   -1165.8511    6392.0524    11562.921    1886.4899 
   77500    301.46257   -1160.5941     6396.331    11676.022    1916.2804 
   77600    305.78589   -1169.6222    6359.0326    11722.057    1854.8394 
   77700    299.39805   -1168.1614    6495.1152    11723.134    1890.5271 
   77800    300.20116   -1170.3113    6463.8658    11706.892    1873.1511 
   77900    300.25365   -1167.9775    6465.6816    11712.163    1901.4137 
   78000    299.10237   -1159.3263    6334.0589    11564.596    1821.9835 
   78100    299.58878   -1164.5422    6350.2742    11585.987    1873.9819 
   78200    298.67856   -1156.5352    6483.1516    11707.426    1883.2018 
   78300    299.92355   -1153.7203    6486.3369    11740.023    1909.6667 
   78400    297.11284    -1160.794    6333.2311    11519.797    1899.3004 
   78500    301.80224   -1157.8649    6532.2974    11821.974    1966.5004 
   78600    303.51105   -1158.1747    6342.6389    11668.512    1877.9312 
   78700    301.98535   -1155.4018    6437.2923    11733.344    1885.6802 
   78800    298.95901   -1155.9805    6426.6166    11657.437    1841.4498 
   78900    302.66975   -1164.4117    6445.6412    11747.304    1877.4044 
   79000    303.92671   -1156.9204    6462.9775    11798.985      1880.53 
   79100    299.70667   -1156.0006    6480.3794    11727.152    1978.2747 
   79200     300.1596   -1159.8219    6404.9504    11657.578    1943.0776 
   79300     298.4007   -1150.1213    6338.2034    11562.955    1861.1489 
   79400    298.35224   -1160.3484    6462.9866    11676.476    1939.2089 
   79500    300.89439   -1157.3934    6315.3582    11586.112    1892.3093 
   79600    298.70205   -1159.5373    6449.4142    11671.188    1893.1491 
   79700    304.36478   -1162.2845    6468.5127    11808.515    1862.4717 
   79800    301.07426   -1168.7142     6465.653    11728.928    1911.1111 
   79900    299.11718   -1165.0591    6425.3329    11650.453     1895.512 
   80000    302.44113   -1164.8516    6460.5031    11756.842    1893.0277 
   80100    296.76725   -1164.5631    6375.2571    11550.671    1895.8887 
   80200     299.5801   -1164.2402    6433.8306     11669.66    1896.4686 
   80300    300.36273   -1168.2655    6412.4455    11660.969    1826.0101 
   80400    295.87208   -1165.1105    6344.2484    11499.991    1813.2096 
   80500    298.84076   -1161.8311    6524.0811    11746.524    1948.4019 
   80600    303.86593   -1162.0926    6580.1409    11909.678    2024.7649 
   80700    299.02044    -1165.372    6369.7149    11592.456    1921.7389 
   80800    302.00803   -1165.5766    6262.2241    11548.586    1881.5385 
   80900    297.77932   -1167.0157    6465.8577     11660.44    1927.5507 
   81000    297.96528    -1164.251    6429.9523    11631.272    1786.2551 
   81100    301.24557   -1164.0764    6490.6994    11762.272    1899.5489 
   81200    302.00688   -1161.8624    6392.7135    11682.765    1892.0779 
   81300    300.00248    -1161.863      6445.32     11692.55    1844.3621 
   81400    300.64498   -1159.5035    6363.3269    11626.642    1866.9619 
   81500    299.18031   -1160.1727    6458.3162    11689.672    1900.5608 
   81600    301.51879   -1157.6911    6397.4368    11681.232    1900.8967 
   81700    297.32323   -1156.1856    6363.9605     11559.63    1849.3413 
   81800     297.9661   -1159.9499    6496.8332    11702.472    1916.0239 
   81900    300.57363   -1158.2328    6395.6106    11658.672    1859.3856 
   82000     300.2998   -1160.0733    6436.4386     11691.81    1876.7701 
   82100    300.51017   -1158.0251    6416.9471    11678.861    1919.2315 
   82200    302.21049   -1157.1636    6456.0181    11755.118    1929.1028 
   82300    297.05976   -1164.5685    6419.8798    11601.537    1857.3169 
   82400    303.01662    -1158.722    6464.3929    11779.156     1862.854 
   82500    301.09045   -1159.6206    6395.3988    11668.114    1882.2283 
   82600    296.80677   -1156.6397    6359.8287     11544.01    1918.3223 
   82700    302.47694   -1162.8959    6421.1254    11720.185    1956.0204 
   82800    299.13144   -1159.3776    6383.7954    11614.902    1929.5938 
   82900    299.82645   -1161.3686    6462.1479    11706.111    1930.1275 
   83000    304.87583   -1165.4114    6416.1207    11763.914    1995.6464 
   83100    300.31016   -1162.8169    6397.2652    11650.114    1925.9805 
   83200    305.02639    -1162.964    6457.7337    11811.191    1961.0568 
   83300    300.59495   -1163.3507    6378.8456    11637.245    1895.3564 
   83400    301.59747   -1167.1989    6475.5077    11751.476    1974.4559 
   83500    302.98099     -1159.81    6490.7602    11803.674    1948.6069 
   83600    298.51679   -1163.2537     6472.234    11686.334    1962.5944 
   83700    300.28332   -1163.8612    6358.8496    11610.081    2005.4172 
   83800    296.27029   -1164.0569     6429.139    11594.442    1914.1433 
   83900    300.19229   -1160.6568    6440.6927    11693.184    1899.1215 
   84000    299.39813   -1161.5785    6450.1973      11684.8    1980.8792 
   84100    301.69435   -1161.6831    6438.2516    11721.805    1940.5835 
   84200    301.01554   -1160.2762    6380.1046    11650.564    1831.3422 
   84300    294.74987   -1160.3109    6379.8046    11516.372    1835.5583 
   84400    299.33858   -1154.7487    6426.1944    11666.355     1877.617 
   84500    301.23089   -1156.1256    6420.3736    11699.584    1808.5432 
   84600    299.36085   -1157.8636    6472.3862    11709.908    1830.6826 
   84700     304.7579   -1150.1296    6434.3066    11794.862         1894 
   84800    296.06135   -1154.7632    6379.6555    11549.789    1824.2678 
   84900     299.4414   -1156.5403    6427.4754    11668.041    1931.9275 
   85000    299.54668   -1154.8628    6343.2148    11587.707    1835.4837 
   85100    302.51334   -1151.8094    6575.8561     11886.78    1925.1823 
   85200    299.19635   -1156.6807    6368.7369    11603.927    1857.9136 
   85300    301.51443   -1157.7852    6387.9005    11671.508    1888.0775 
   85400    297.51881   -1159.9947     6439.216    11635.254    1931.7134 
   85500    301.00759   -1160.0582    6303.5366    11574.044    1872.4574 
   85600    297.24135   -1158.2423    6419.6921    11611.555    1982.9649 
   85700    301.94121   -1161.0667    6402.7761     11692.22    1914.7289 
   85800    297.13629   -1162.4065    6483.4141    11668.869     1963.607 
   85900     297.1671    -1157.449     6411.918    11602.988    1896.7159 
   86000     298.8314   -1167.7822    6479.6791    11695.971    1936.4447 
   86100     299.3837   -1164.9663    6426.3839    11657.291    1947.0364 
   86200    303.43526   -1170.9538     6359.017    11670.492    1916.0399 
   86300    298.89372   -1171.8246    6489.4851    11703.066    1978.5131 
   86400    301.07459   -1174.8726     6466.378    11723.502    2012.8414 
   86500     294.9068   -1173.6627    6306.4938    11433.062    1875.0059 
   86600    301.78202   -1168.6846    6321.4099    11599.835    1903.7344 
   86700    298.11239   -1169.4263    6506.4287    11705.716    2003.1835 
   86800    305.48317   -1173.0284    6469.7986    11822.949    1944.2971 
   86900    296.96929   -1168.9689    6370.1233    11545.448    1894.2697 
   87000    294.48799    -1169.068    6409.7548    11531.971    1932.9229 
   87100    297.15766   -1171.1555    6473.4917    11650.654    1884.4827 
   87200    304.38926   -1171.0397    6431.3914    11763.161    1848.6898 
   87300    300.78433   -1168.9298    6339.9038     11596.77    1855.4372 
   87400    303.42178    -1169.519    6399.5234    11712.145    1905.5653 
   87500    298.29118   -1169.6468    6640.8501    11843.737    1940.6149 
   87600     302.4711   -1166.7229    6401.3711    11696.479    1897.3854 
   87700    297.59854   -1163.1816    6390.7499    11585.304    2002.3021 
   87800    299.58629   -1161.6292    6318.8015    11557.374    1913.9695 
   87900    300.71536    -1154.575    6543.9083    11813.655     1918.899 
   88000    298.74441   -1156.5955    6402.8692     11628.49     1866.029 
   88100    302.65006   -1161.5384    6446.4109    11750.527    1915.5397 
   88200    300.72132   -1155.1293    6461.6659    11730.986    1906.4256 
   88300    301.19019   -1155.8801    6528.1776    11806.764    1981.9339 
   88400    300.29807   -1161.5588    6391.3635    11645.212    1943.5393 
   88500    296.58614   -1158.4429     6408.816    11586.481    1932.8261 
   88600    302.86894   -1151.8066    6562.1036    11880.627    1923.7779 
   88700    303.08789   -1157.6061    6442.1536    11759.555    1904.1588 
   88800    297.42777    -1164.442    6377.2795    11566.925    1942.6682 
   88900    297.51211   -1156.8761    6469.4209    11668.435    1929.2401 
   89000     305.6505   -1163.0094     6465.063    11831.807    1943.1333 
   89100    299.96217   -1166.0841    6463.4394    11705.587    1942.3986 
   89200    301.05158   -1166.4173    6323.7032    11588.791    1868.1802 
   89300    297.27162   -1162.5385    6433.4977    11621.711     1947.396 
   89400    299.84401   -1165.5909    6336.4687    11576.585    1918.2535 
   89500    295.19113   -1168.6171    6494.5739    11632.262    1950.1797 
   89600     302.4973   -1170.8658    6386.9975    11678.522    1876.4447 
   89700     301.4833   -1170.3452    6409.7024    11680.085    1912.0714 
   89800    295.31278   -1166.7118    6356.3047    11498.497    1840.7172 
   89900    304.94406    -1167.314    6529.1403    11876.488    1907.2235 
   90000    300.63713   -1166.3779    6453.7595    11710.033    1905.3591 
   90100    296.54073   -1175.1401    6552.1084    11712.106     1901.036 
   90200    297.13728   -1171.1816    6386.9509    11563.651     1836.173 
   90300    302.30285   -1171.8512    6412.2205    11698.606    1854.9412 
   90400    297.26384   -1171.0873    6491.3204    11670.819    1895.8946 
   90500    302.78229   -1169.6968    6454.1565    11752.939    1915.6385 
   90600     298.1533   -1166.8988    6408.0631    11610.752    1883.8014 
   90700    299.45326   -1157.2973    6381.0831    11621.145    1911.8851 
   90800    299.88833   -1161.4981    6465.5476    11710.703    1969.6363 
   90900    298.20814   -1162.8273    6350.5672    11558.499    1824.5051 
   91000    300.78152   -1161.0892    6472.9273    11737.574    1846.8905 
   91100    303.62029   -1158.5588    6622.2439    11950.067    1931.3612 
   91200    297.19861   -1160.0241    6464.3376    11653.506      1837.71 
   91300    301.87363   -1159.1274    6350.6341    11640.574    1868.1661 
   91400    305.44734   -1155.6268    6402.4146    11772.201    1931.9287 
   91500    300.17311   -1157.3706    6321.1231     11576.49    1861.0739 
   91600    299.76052   -1157.0988    6536.3118    11783.137    1971.5735 
   91700    303.98206   -1151.6894    6483.4233    11825.844    1980.1834 
   91800    297.30688    -1150.315    6316.7679    11517.958    1861.9707 
   91900    298.48234   -1155.5625    6434.7662    11655.821    1940.2393 
   92000    304.40196   -1157.8807    6513.8279    11859.028    1973.4585 
   92100    302.57154   -1158.5963    6306.7867    11612.167    1856.7175 
   92200    298.44861   -1161.4265    6477.3258    11691.796    1875.5243 
   92300    301.03438   -1163.1341    6458.9759    11726.979    1944.2139 
   92400     300.3095   -1169.9217    6394.5251    11640.255     1907.304 
   92500    296.98449   -1164.1337     6483.673    11664.157    1908.9015 
   92600     297.8872   -1166.2561    6392.5568    11590.204    1946.7707 
   92700    302.44374    -1161.037    6358.7596    11658.969    1896.9791 
   92800    301.32497    -1162.086    6353.4511    11628.711    1861.6245 
   92900    297.12351   -1164.1326     6320.794    11504.249    1912.0432 
   93000     303.3282   -1173.4533    6460.2931    11766.981    1902.8152 
   93100    302.19662   -1174.8637    6460.8187    11741.922    1877.2707 
   93200    299.68171   -1173.5263    6454.8663     11683.58    1910.0879 
   93300    303.69126   -1174.6529    6396.4436    11709.689    1914.5274 
   93400    298.36152   -1177.1674    6435.8978    11632.767    1884.1566 
   93500    300.76398   -1168.5076    6359.4815    11616.335    1838.2668 
   93600    297.64024    -1163.226    6504.2222    11699.623    1980.6548 
   93700    299.94954   -1167.3685    6264.0812    11504.674    1887.6379 
   93800    300.11176   -1161.2486    6395.3456    11645.524    1932.4225 
   93900    301.12926    -1161.369    6510.8291    11782.625     1936.764 
   94000    299.34462   -1168.8038    6450.7655        11677    1917.8975 
   94100    298.76168   -1169.9686    6289.0187    11501.635    1876.9402 
   94200    299.45257    -1158.705    6444.1399     11682.78    1927.6377 
   94300    294.08528   -1162.2212     6450.382    11570.842    1894.1721 
   94400    299.47579   -1156.5557    6341.6548     11582.94    1883.2553 
   94500    295.82112   -1155.6276    6493.4066    11657.543    1935.4305 
   94600    302.44097   -1152.9036    6503.9232    11812.207    1946.2601 
   94700    295.91842   -1151.4121     6353.017    11523.448    1862.3807 
   94800    301.37455   -1155.3763    6321.0295    11604.058    1829.6176 
   94900    297.14061   -1152.4723    6479.7333    11675.214    1936.6888 
   95000    294.79364   -1155.2095    6410.5956      11553.2    1859.4295 
   95100    303.91683   -1158.1125     6443.088    11777.692     1861.145 
   95200    301.72355   -1154.6267    6510.2641    11801.498      1873.67 
   95300    301.40526    -1159.172    6416.1874    11696.076    1849.1256 
   95400     300.0754   -1160.2893    6419.3983    11669.759    1890.3977 
   95500    300.53354    -1157.662    6542.1661    11804.942    1989.2661 
   95600    295.86997    -1159.807    6443.1879    11604.189     1918.764 
   95700    300.02684   -1160.9693    6333.5201    11582.164    1791.3434 
   95800    303.28532   -1166.2856    6496.5752    11809.515    1975.3001 
   95900     297.8132   -1163.9777    6506.8067    11705.151    1958.9495 
   96000    299.40413   -1166.4904    6343.8149    11573.634    1868.1013 
   96100    301.45279   -1165.6405    6397.5531    11671.989    1933.2784 
   96200    298.44748   -1168.5037    6446.3375    11653.706    1899.0811 
   96300    301.65179   -1168.2722    6495.2254    11771.281    1927.1135 
   96400    303.08658    -1171.479    6365.9111    11669.412    1964.8681 
   96500    294.05596    -1170.669    6419.5815    11530.967    2010.7925 
   96600     299.6682   -1172.2736    6544.3556    11774.033    1997.2938 
   96700    299.66091   -1173.8659    6428.5952    11656.525    1900.8713 
   96800     304.1899   -1173.2817    6341.6979    11666.967    1879.9965 
   96900    297.51264   -1171.7681    6431.9341    11616.067    1849.7249 
   97000    304.81699   -1161.6458    6508.9265    11859.228    1828.2588 
   97100    299.60277    -1165.669    6401.3545    11636.239    1844.4319 
   97200    299.63042   -1165.8509    6313.7108    11549.004    1874.0583 
   97300    297.41058   -1167.3494    6396.6481    11583.019    1922.5386 
   97400    302.64887   -1164.6566    6459.5873    11760.559    1900.9243 
   97500    294.73382   -1163.9214    6457.9321    11590.546    1835.7593 
   97600    298.05491   -1164.4572    6488.2049    11691.234    1932.4515 
   97700    299.42848   -1162.5579    6310.0063    11544.278    1867.8103 
   97800     297.8913   -1163.2381    6494.7675     11695.52    1909.8075 
   97900     299.5716   -1162.0194    6438.0191    11675.887    1861.7996 
   98000    304.14947   -1160.9807    6403.5776    11740.284    1899.5726 
   98100    295.04005     -1154.53    6378.4743    11527.022    1890.7248 
   98200    300.94033   -1151.3553    6414.1951    11691.968    1899.8959 
   98300    302.45854   -1157.3456    6426.3568    11730.574    1871.7678 
   98400    300.12885   -1157.1892     6431.291    11685.894    1889.5037 
   98500    299.91894   -1157.8434    6417.5779    11667.042    1895.4613 
   98600    296.90606    -1158.722    6473.7647    11657.985    1842.7306 
   98700    302.29141    -1148.836    6372.1328    11681.289    1835.1168 
   98800     302.8547   -1158.2158    6436.5224    11748.333    1915.2307 
   98900    297.79406   -1160.7643    6411.8244    11612.973    1884.0573 
   99000    304.61979   -1155.8079    6522.4873    11874.414    1971.1517 
   99100    299.27761   -1160.5753    6343.2619    11576.294    1928.9683 
   99200    307.02629   -1164.3297    6409.8656    11804.681     1922.892 
   99300    298.31585   -1168.3167    6446.3625    11651.106    1895.2392 
   99400     305.8993   -1164.9932    6419.0111    11789.087    1891.6685 
   99500    298.50204   -1162.1966    6413.5776    11628.419    1795.7416 
   99600    305.47452   -1164.0115    6478.8399    11840.823    1823.8971 
   99700    301.12316   -1169.7476    6412.4265    11675.713    1851.0797 
   99800    304.99017   -1166.2716    6326.6664    11676.042    1891.7105 
   99900    298.62603   -1170.1711    6443.8955    11653.411     1925.298 
  100000    300.21772   -1171.1044    6474.5882    11717.175    1946.9108 
  100100     298.9903   -1167.9535     6368.224     11587.74    1964.8265 
  100200    301.91869   -1166.5597     6414.104    11697.574    1933.9965 
  100300    298.34214    -1166.619    6485.7367     11692.74    1913.6727 
  100400    300.72798   -1170.1888    6388.5064    11642.909    1846.5433 
  100500    300.06679   -1169.9249    6447.2715    11687.813    1896.5569 
  100600    298.66677   -1162.6847    6406.0702    11623.943    1908.8921 
  100700    302.36038   -1164.0867    6325.2506    11620.629    1906.1819 
  100800    297.56132   -1165.0774    6394.2361      11586.1    1849.1541 
  100900    303.78819   -1163.1229    6474.3663    11801.212    1868.4291 
  101000    299.08733   -1157.2188     6455.291    11687.614    1904.8649 
  101100    300.69118   -1161.1632    6367.6898    11630.332    1867.1134 
  101200     295.0159   -1159.9874    6401.3157     11543.89    1857.9648 
  101300    302.02329   -1163.1052    6465.1576    11754.317    1876.5232 
  101400    304.07932   -1154.2936    6440.2831    11782.178    1894.2239 
  101500     298.4693   -1164.5199    6430.8695    11642.688    1858.3737 
  101600    299.52715   -1155.5339    6358.2868    11601.691    1873.5767 
  101700    298.87081   -1158.8216    6506.2949    11732.389    1952.7334 
  101800    301.78191   -1156.9569    6378.2111    11668.362    1839.4723 
  101900    300.22617   -1154.0663    6505.9027    11765.708    1901.8545 
  102000    298.72031   -1154.7149    6407.0835     11634.07    1860.5707 
  102100    302.45499   -1154.8755    6422.2817    11728.893    1832.7857 
  102200    296.84068   -1163.8108    6410.2949     11588.03    1838.7811 
  102300    299.47561   -1161.3248      6438.06    11674.572    1833.4446 
  102400    299.29259   -1161.7677     6460.362    11692.521    1777.3491 
  102500    303.65872   -1164.9631     6462.033    11784.272     1855.354 
  102600    298.70563   -1158.9069    6407.3806    11629.861    1878.0847 
  102700    301.87047   -1155.7492    6464.9269    11758.177    1920.7279 
  102800    297.70403   -1162.0555    6427.3058     11625.24    1887.7022 
  102900    301.07395   -1166.2132    6431.5898     11697.36    1876.7378 
  103000    300.62055   -1164.2441    6383.8999    11641.953    1822.2806 
[...]
  588400    301.52733   -1157.5576    6401.4121    11685.523    1900.4851 
  588500    303.41546   -1166.1772     6369.804    11685.632    1845.6075 
  588600     299.3165   -1165.2076    6456.3142    11685.544    1938.7499 
  588700    298.78262   -1166.2052    6468.8172    11685.644    1880.3583 
  588800    298.22573   -1171.0938    6485.5865    11685.628    1931.9187 
  588900    299.22418   -1166.1103     6459.274    11685.629    1956.8315 
  589000    303.45748   -1173.1615    6375.8701    11685.612     1941.841 
  589100    297.81815   -1162.6632    6485.7982    11685.563    1982.3185 
  589200    299.85918   -1161.9608    6441.5193     11685.59    1928.6126 
  589300    302.13289    -1163.648    6394.5729     11685.53    1952.2707 
  589400    301.03814   -1164.0948    6418.3982    11685.521    1946.0362 
  589500    299.54688   -1165.3655    6451.6311    11685.625    1904.9019 
  589600     301.3003   -1168.6784    6417.4037    11685.544    1877.9644 
  589700    300.57544    -1165.685    6429.9488    11685.597    1950.8956 
  589800    301.33239   -1164.5487    6412.6001    11685.555    1968.3872 
  589900    303.42439   -1163.7179     6366.979    11685.458    1926.1943 
  590000    298.23042    -1163.308    6477.5405    11685.468    1935.0449 
  590100    299.71644   -1160.3597    6442.9565    11685.579    1892.2621 
  590200    300.86163   -1161.3206    6419.3114    11685.438    1889.3188 
  590300    300.38296   -1161.2182    6429.5192    11685.522    1916.8378 
  590400    301.41412   -1163.8398    6410.0144    11685.425    1857.8585 
  590500    299.93484   -1161.5341    6439.3214    11685.435    1844.4065 
  590600    297.25752   -1161.8951      6496.82    11685.376    1947.5889 
  590700    302.12232   -1159.9939    6391.0143      11685.4    1954.2656 
  590800    301.86951   -1159.4235    6395.8827    11685.438    1887.4954 
  590900    300.19869   -1157.8095    6429.8429    11685.318     1839.292 
  591000    301.06601   -1163.2529    6416.9014    11685.462    1841.1556 
  591100    299.29228   -1161.7088    6453.2659    11685.477    1886.2425 
  591200    298.93751   -1161.4581    6460.5768     11685.46    1861.3608 
  591300    299.78831   -1165.2847    6446.1435    11685.376    1863.3154 
  591400    300.87709   -1165.4004    6423.1421    11685.519    1830.5101 
  591500    301.70989   -1167.0763    6406.9972     11685.49     1892.232 
  591600    301.56795   -1163.3746    6406.3688    11685.531    1941.8654 
  591700    297.94981    -1163.403    6483.6947    11685.532      1920.97 
  591800    301.44089    -1165.691    6411.4243    11685.555    1917.8029 
  591900    301.73457   -1165.0506    6404.6094    11685.655     1963.179 
  592000    301.38603   -1163.8239    6410.7712    11685.597    1897.7782 
  592100     300.0547   -1166.7333    6442.1241    11685.599    1870.9041 
  592200    300.47175   -1165.4456    6432.0708    11685.743    1946.1078 
  592300    301.05973   -1164.5385    6418.5758    11685.716    1877.2841 
  592400    303.56304   -1169.3268    6369.8786     11685.71    1824.7428 
  592500    302.13999   -1162.2997    6393.2105    11685.668     1914.904 
  592600    296.70602     -1166.75    6513.6725    11685.591     1936.062 
  592700    302.00471   -1166.4138     6400.213    11685.666    1946.0805 
  592800    299.30685   -1164.3571    6455.7133    11685.588    1999.9189 
  592900    298.85439   -1168.0457    6469.0336    11685.553    1999.2482 
  593000    301.51409   -1164.4239    6408.5402    11685.502    1870.4828 
  593100    296.53806   -1164.1195    6514.6325    11685.594     1977.133 
  593200    300.90204   -1163.9069    6421.1612    11685.565    1963.5349 
  593300    302.02652    -1164.876    6398.0024     11685.46    1882.7472 
  593400    298.63151   -1164.2222     6469.974    11685.556     1885.596 
  593500    301.75561   -1164.1796    6403.1884    11685.554    1832.4582 
  593600    301.54794   -1165.5031    6408.8947    11685.501    1853.6569 
  593700     299.4155   -1157.9286    6446.8988    11685.523    1865.5933 
  593800    299.86043   -1155.2864    6434.6874    11685.459    1880.8378 
  593900    303.43909   -1160.1609     6363.133    11685.483    1835.6769 
  594000    301.05595   -1158.8758    6412.7683    11685.491    1884.0559 
  594100    295.49449   -1156.4707    6529.1674    11685.483    1937.7518 
  594200    302.89581   -1162.2034    6376.7729    11685.474    1865.8413 
  594300    299.83193   -1160.6531     6440.715    11685.511    1920.7924 
  594400    302.38978   -1163.9597    6389.2963     11685.43    1892.1319 
  594500    299.42052   -1161.7871     6450.552    11685.425    1929.6862 
  594600     301.5922   -1159.7702    6402.1948    11685.479     1894.247 
  594700     302.5167    -1164.384    6386.9914    11685.413     1857.906 
  594800    301.92539   -1156.5731    6391.8438    11685.443    1865.0487 
  594900    297.79744   -1162.4194    6485.9956    11685.562    1966.8915 
  595000     303.2253   -1166.1409    6373.6895    11685.492    1885.6334 
  595100    299.57056   -1167.2524    6452.9227    11685.536     1915.382 
  595200    299.85446   -1161.9834    6441.6885    11685.635    1906.3729 
  595300    300.86247   -1169.4694    6427.6193    11685.615    1910.9723 
  595400    300.08269    -1167.923    6442.7783    11685.661    1893.9228 
  595500    301.48721   -1167.8389    6412.6899    11685.663     1917.027 
  595600    302.61066   -1163.7104    6384.4886    11685.591    1923.9365 
  595700    297.20273    -1164.089    6500.3597    11685.551      1958.61 
  595800    301.02498   -1167.1248      6421.88    11685.692    1960.1035 
  595900    302.00934   -1165.7729    6399.4801    11685.673    1907.9108 
  596000    298.57694   -1167.6934    6474.7354     11685.68    1926.1608 
  596100    302.68191   -1166.3215    6385.7009    11685.714    1932.5408 
  596200    299.58822   -1166.4275    6451.8807    11685.696     1959.693 
  596300    300.12921   -1162.5118    6436.3931    11685.681    1888.4527 
  596400    301.41281   -1165.8156    6412.1874    11685.594    1882.3472 
  596500    298.48989   -1164.2077    6473.0465    11685.617    1967.6627 
  596600    301.25692   -1159.2875    6408.9526    11685.557    1888.0802 
  596700    301.96834   -1160.9826    6395.3799    11685.487    1895.8163 
  596800    300.60069   -1161.6542    6425.3036    11685.522    1918.9462 
  596900    299.57201   -1164.1389    6449.7334    11685.491    1861.7906 
  597000    299.66385   -1159.9506    6443.5748    11685.483    1899.3739 
  597100    299.60326   -1163.8468    6448.7869    11685.504    1987.7553 
  597200    301.12365   -1163.3386    6415.7351    11685.441    1870.1764 
  597300    296.11225   -1152.6766     6512.151    11685.458    1925.1054 
  597400    302.57886   -1159.1895    6380.5432    11685.487    1955.1084 
  597500    301.05714   -1158.0419    6411.8707    11685.453    1963.2175 
  597600    302.20743   -1161.7837    6390.9955     11685.41    1886.2196 
  597700    300.25928   -1164.8447     6435.703    11685.437    1960.4338 
  597800    297.45123    -1162.869    6493.7915    11685.511     1984.779 
  597900    300.88578   -1161.1371    6418.7135    11685.539    1930.4268 
  598000    302.34033   -1156.7029    6383.2571    11685.591    1953.0102 
  598100    299.41421   -1162.5014    6451.5352    11685.559    1985.6409 
  598200    301.70977   -1164.3483    6404.3235    11685.542    1912.3714 
  598300    300.31963   -1167.8227    6437.5544      11685.6    1964.7562 
  598400    303.71199   -1170.3543    6367.6697    11685.656    1960.6352 
  598500      298.854   -1168.6147    6469.7641    11685.707    1970.5645 
  598600    304.43497   -1167.5428    6349.4226    11685.666    1865.6814 
  598700    297.10845   -1164.6586    6503.0376    11685.645    1938.0015 
  598800    301.49557   -1171.6628    6416.3526     11685.68    1930.5014 
  598900    303.42063   -1171.0701    6374.6956    11685.742    1913.1613 
  599000    297.76459   -1166.9832     6491.446    11685.746    1871.1457 
  599100    300.66097   -1173.5989    6436.1708    11685.732    1831.6835 
  599200    301.37934   -1168.1968    6415.5126    11685.823    1876.5259 
  599300    303.11499   -1167.5062    6377.6781    11685.759    1872.8383 
  599400    296.32866   -1167.4047    6522.5989    11685.801     1967.129 
  599500    302.13635   -1170.0757    6401.0735    11685.677    1877.7756 
  599600    300.01641     -1168.15     6444.429    11685.669    1974.0482 
  599700    302.00497   -1162.0763    6395.8537     11685.65    1931.8414 
  599800    298.05349   -1169.3425    6487.5677    11685.681    1922.4524 
  599900    299.15496   -1165.6567    6460.2735    11685.604    1886.6794 
  600000    302.76424   -1164.8899    6382.4535    11685.657    1944.9261 
Loop time of 279.288 on 8 procs for 300000 steps with 7168 atoms

Pair  time (%) = 137.34 (49.1752)
Bond  time (%) = 80.9234 (28.9749)
Neigh time (%) = 19.5684 (7.00652)
Comm  time (%) = 31.1356 (11.1482)
Outpt time (%) = 0.478032 (0.171161)
Other time (%) = 9.84213 (3.52401)

Nlocal:    896 ave 902 max 887 min
Histogram: 1 0 0 0 1 2 1 0 2 1
Nghost:    2843 ave 2858 max 2836 min
Histogram: 3 0 1 1 2 0 0 0 0 1
Neighs:    23628.9 ave 24085 max 23177 min
Histogram: 1 0 3 0 0 1 1 0 0 2

Total # of neighbors = 189031
Ave neighs/atom = 26.3715
Ave special neighs/atom = 157.056
Neighbor list builds = 3049
Dangerous builds = 0
# −−−−−−−−−−−−−− Flux calculation in nve −−−−−−−−−−−−−−−
reset_timestep  0
compute         PE all pe/atom
compute         KE all ke/atom

variable        CX atom (vx*(c_KE+c_PE))
compute         Jcx all reduce sum v_CX

variable        CZ atom (vz*(c_KE+c_PE))
compute         Jcz all reduce sum v_CZ

variable        CY atom (vy*(c_KE+c_PE))
compute         Jcy all reduce sum v_CY

compute         SA all stress/atom virial

variable        VX atom -(c_SA[1]*vx+c_SA[4]*vy+c_SA[5]*vz)*1.4593e-5
compute         Jvx all reduce sum v_VX

variable        VZ atom -(c_SA[3]*vz+c_SA[6]*vy+c_SA[5]*vx)*1.4593e-5
compute         Jvz all reduce sum v_VZ

variable        VY atom -(c_SA[2]*vy+c_SA[6]*vz+c_SA[4]*vx)*1.4593e-5
compute         Jvy all reduce sum v_VY

variable        Jx equal (c_Jcx+c_Jvx)/vol
variable        Jz equal (c_Jcz+c_Jvz)/vol
variable        Jy equal (c_Jcy+c_Jvy)/vol

fix             JJTx all ave/correlate $s $p $d                 v_Jx type auto file J0Jt_tx.dat ave running
fix             JJTx all ave/correlate 5 $p $d                 v_Jx type auto file J0Jt_tx.dat ave running
fix             JJTx all ave/correlate 5 20000 $d                 v_Jx type auto file J0Jt_tx.dat ave running
fix             JJTx all ave/correlate 5 20000 100000                 v_Jx type auto file J0Jt_tx.dat ave running

fix             JJTz all ave/correlate $s $p $d                 v_Jz type auto file J0Jt_tz.dat ave running
fix             JJTz all ave/correlate 5 $p $d                 v_Jz type auto file J0Jt_tz.dat ave running
fix             JJTz all ave/correlate 5 20000 $d                 v_Jz type auto file J0Jt_tz.dat ave running
fix             JJTz all ave/correlate 5 20000 100000                 v_Jz type auto file J0Jt_tz.dat ave running

fix             JJTy all ave/correlate $s $p $d                 v_Jy type auto file J0Jt_ty.dat ave running
fix             JJTy all ave/correlate 5 $p $d                 v_Jy type auto file J0Jt_ty.dat ave running
fix             JJTy all ave/correlate 5 20000 $d                 v_Jy type auto file J0Jt_ty.dat ave running
fix             JJTy all ave/correlate 5 20000 100000                 v_Jy type auto file J0Jt_ty.dat ave running

run             1000000
Memory usage per processor = 13.8919 Mbytes
Step Temp E_pair E_mol TotEng Press 
       0    302.76424   -1164.8899    6382.4535    11685.657    1944.9261 
     100    302.19474   -1171.0171    6400.7422    11685.652    1898.2724 
     200     300.3325   -1166.6333    6436.0497    11685.559    1867.2882 
     300    300.24468   -1167.4736    6438.7784    11685.572    1883.3808 
     400    297.33349   -1161.0101    6494.4495    11685.513     1891.155 
     500     297.9056   -1153.6717    6474.8987    11685.523    1982.8393 
     600    301.41354   -1154.5177    6400.6887    11685.409    1969.3669 
     700    304.74945    -1163.776    6338.6146    11685.343    1884.8872 
     800    298.51993   -1161.3077    6469.3106    11685.423    1915.7129 
     900    299.72618   -1163.1296    6445.4862    11685.547    1829.2162 
    1000    296.01717   -1165.4679    6527.0258    11685.511    1924.5214 
    1100    304.00905   -1167.6352    6358.4321    11685.484    1962.0945 
    1200    296.05337   -1162.2909    6523.0991    11685.534    1960.8095 
    1300    302.21181   -1159.0992    6388.3607    11685.553    1925.3299 
    1400    300.95201   -1159.5063    6415.5999    11685.472    1937.4124 
    1500    300.00478   -1157.9454    6434.4288    11685.625    1954.7635 
    1600    296.76297   -1165.9196    6511.6245     11685.59    1956.7917 
    1700    300.31573   -1165.4438    6435.2994     11685.64    1976.7491 
    1800    303.23218   -1163.6045    6371.0919    11685.578    1955.2781 
    1900    301.15988   -1165.2535     6417.049    11685.614    2001.4616 
    2000    299.76967   -1169.5669    6451.1838    11685.736    1958.6664 
    2100    298.16637     -1168.61    6484.4636    11685.721    1907.9294 
    2200    295.24444   -1162.4773    6540.7355    11685.703    1875.9656 
    2300     306.1187   -1172.6666    6318.5448    11685.634    1848.4788 
    2400    299.67314   -1169.8944    6453.5866    11685.749    1936.1417 
    2500    301.21963   -1168.7204    6419.3666    11685.741    1879.7741 
    2600    300.08929   -1165.1027    6439.7731    11685.618    1867.4881 
    2700    301.29089   -1168.0853    6417.1325    11685.665    1880.2738 
    2800     301.1219   -1168.7587    6421.4733    11685.722    1894.3822 
    2900    300.36651   -1171.8869    6440.6912    11685.674    1880.4747 
    3000    301.40086   -1164.3372    6411.0023    11685.632    1901.4729 
    3100    301.61875   -1164.7099    6406.7188    11685.631    1842.4087 
    3200    300.26718   -1161.9308    6432.8403    11685.657    1830.2574 
    3300    300.41379   -1165.7644     6433.531    11685.646    1850.8966 
    3400    299.82353   -1160.9735    6441.3448    11685.641    1831.8624 
    3500    303.01054   -1164.2465    6376.4838    11685.593    1786.0745 
    3600    300.51242   -1162.5821      6428.18    11685.585    1860.6935 
    3700    300.42205   -1163.4566    6430.8538    11685.453    1913.5271 
    3800    299.01393   -1155.5057    6452.9403    11685.408    1948.4709 
    3900    302.20178   -1163.2581    6392.5993    11685.418    1937.9547 
    4000     301.3012   -1159.6813    6408.3196    11685.476    1896.1502 
    4100     298.3646   -1159.4619    6470.8952    11685.535    1893.5136 
    4200    298.95076    -1166.102    6464.9645    11685.487     1920.266 
    4300    301.94406   -1163.0929    6398.0847    11685.563     1867.678 
    4400    300.45262   -1163.0608    6429.8857    11685.534    1838.7964 
    4500    300.62495   -1165.5224     6428.657    11685.525    1861.5291 
    4600    300.32554   -1160.3572    6429.8711    11685.508    1876.4689 
    4700    299.18758   -1158.9892    6452.8833    11685.578    1863.5637 
    4800    304.47443   -1164.8712    6345.9271    11685.685    1854.9799 
    4900    298.52696   -1162.9103    6470.9241    11685.584    1883.3485 
    5000    303.65633   -1161.5551    6360.0184    11685.615    1800.8299 
    5100     298.3292   -1163.8434      6476.08    11685.582    1875.3757 
    5200    302.88371    -1166.239    6381.2197    11685.626    1817.8657 
    5300    301.75224   -1172.3642    6411.5245    11685.634    1825.3819 
    5400    300.14797   -1163.5118    6436.9155    11685.604    1860.2345 
    5500    299.39552   -1160.7447    6450.2457    11685.627     1892.345 
    5600    300.25574   -1164.7134    6435.8762    11685.666    1894.0008 
    5700    300.11811   -1168.6025    6442.6585    11685.619    1846.6469 
    5800    298.56832   -1168.3653    6475.5436    11685.632    1916.2091 
    5900    301.54777   -1170.1253    6413.6022    11685.582    1913.0735 
    6000    301.01448   -1166.1263    6421.0692    11685.656    1920.2747 
    6100     299.9907   -1165.5254    6442.3655    11685.681    1866.7438 
    6200    301.69675   -1162.7533    6403.0824    11685.617     1844.493 
    6300    298.11835   -1159.1721    6475.9806     11685.65    1919.1947 
    6400    301.07957   -1165.8723    6419.3691      11685.6    1894.2065 
    6500    300.33784   -1163.4099    6432.6852    11685.532    1931.1707 
    6600    299.86335   -1165.5731    6445.0423     11685.59    1891.9273 
    6700     301.8182   -1167.7416    6405.4759    11685.617     1881.067 
    6800    297.25101   -1166.5771    6501.9175    11685.652    1936.4242 
    6900    303.41502   -1156.4262    6359.9815    11685.552    1884.7823 
    7000    303.21288   -1160.8208     6368.656    11685.513    1844.5355 
    7100    296.58268   -1160.7196    6510.1657     11685.48    1908.5777 
    7200    305.44953   -1162.0614    6322.0736    11685.473    1892.1103 
    7300    298.04178   -1159.9528    6478.2212    11685.474    1960.9245 
    7400    299.29368    -1160.485    6452.0145     11685.48    1864.3714 
    7500     300.0557   -1164.6904    6439.9752    11685.514    1823.4779 
    7600    300.56948   -1167.8219     6432.188    11685.572    1896.7755 
    7700    298.75877   -1163.2197    6466.1803    11685.483    1954.6183 
    7800    301.91553   -1157.4547    6393.0417    11685.549    1855.7419 
    7900    299.05191    -1166.985    6463.7654    11685.565    1893.8916 
    8000    299.55892   -1165.9864    6451.9084    11685.539    1861.6675 
    8100    302.92516   -1164.5918    6378.6582    11685.598    1913.6185 
    8200    302.30761   -1162.3001    6389.5831    11685.621     1903.017 
    8300    296.06642   -1168.0165    6528.6429    11685.631     1921.746 
    8400    299.98327   -1163.7971     6440.732    11685.617    1889.3428 
    8500    302.19365   -1167.0993    6396.7986    11685.603    1901.5329 
    8600    302.68193   -1166.3826    6385.6592    11685.612    1892.4759 
    8700    301.94184   -1163.6234    6398.7197     11685.62    1873.4288 
    8800    299.75336   -1168.9556    6450.8511    11685.666    1956.3087 
    8900    299.83438   -1168.4498    6448.6724    11685.724    1873.5716 
    9000    301.51593   -1165.2003    6409.4604    11685.685    1907.0664 
    9100    301.31262   -1166.3485    6414.9699    11685.703    1886.1673 
    9200    297.41314   -1166.4989    6498.4058    11685.682    1866.4095 
    9300    302.23451   -1169.0219    6397.8619    11685.617    1837.8386 
    9400    298.55645   -1158.0356    6465.4143    11685.579    1875.8814 
    9500    301.18418   -1159.4991    6410.7353    11685.574    1842.0856 
    9600    298.80902   -1154.1329    6456.1003    11685.564    1906.1652 
    9700    300.18392    -1158.237    6430.8523    11685.584    1870.6572 
    9800     302.6766   -1161.1738    6380.5392    11685.587    1867.7522 
    9900    300.10087   -1164.1754     6438.534    11685.553    1889.9632 
   10000    298.01743   -1165.8368    6484.6565    11685.505    1813.0886 
Loop time of 1398.92 on 8 procs for 1000000 steps with 7168 atoms

Pair  time (%) = 563.136 (40.2552)
Bond  time (%) = 296.627 (21.2041)
Neigh time (%) = 65.2812 (4.66656)
Comm  time (%) = 102.164 (7.30305)
Outpt time (%) = 0.00353765 (0.000252886)
Other time (%) = 371.704 (26.5708)

Nlocal:    896 ave 900 max 892 min
Histogram: 2 0 0 1 0 1 1 2 0 1
Nghost:    2847.12 ave 2855 max 2840 min
Histogram: 1 0 2 1 0 1 1 0 1 1
Neighs:    23592.9 ave 23923 max 23249 min
Histogram: 1 1 0 2 0 0 2 0 0 2

Total # of neighbors = 188743
Ave neighs/atom = 26.3313
Ave special neighs/atom = 157.056
Neighbor list builds = 10158
Dangerous builds = 0
