LAMMPS (11 Jun 2012)
# Initialization
atom_style      full
units           real
variable        T equal 300
variable        dt equal 1.0
variable        seed equal 123462
variable        radius equal 0.5
variable        sizet equal 4
variable        sizeb equal -4
variable        p equal 20000    # correlation length
variable        s equal 5        # sample interval
variable        d equal $p*$s    # dump interval
variable        d equal 20000*$s    variable        d equal 20000*5    
# convert from LAMMPS real units to SI
variable        kB equal 1.3806504e-23    # [J/K] Boltzmann
variable        kCal2J equal 4186.0/6.02214e23
variable        A2m equal 1.0e-10
variable        fs2s equal 1.0e-15
variable        convert equal ${kCal2J}*${kCal2J}/${fs2s}/${A2m}
variable        convert equal 6.9510174124148567155e-21*${kCal2J}/${fs2s}/${A2m}
variable        convert equal 6.9510174124148567155e-21*6.9510174124148567155e-21/${fs2s}/${A2m}
variable        convert equal 6.9510174124148567155e-21*6.9510174124148567155e-21/1.0000000000000000777e-15/${A2m}
variable        convert equal 6.9510174124148567155e-21*6.9510174124148567155e-21/1.0000000000000000777e-15/1.0000000000000000364e-10
variable        b_eq equal 10.0/3.0

# setup problem
dimension       3
boundary        p p p
neighbor        2    bin
pair_style      lj/cut 10.0
bond_style      morse
read_data       lammps.data
  9 = max bonds/atom
  orthogonal box = (0 0 0) to (80 80 80)
  2 by 2 by 2 MPI processor grid
  7168 atoms
  33696 bonds
  10 = max # of 1-2 neighbors
  86 = max # of 1-3 neighbors
  824 = max # of 1-4 neighbors
  164 = max # of special neighbors
pair_coeff      1 1 0.000 3.500
pair_coeff      2 2 0.000 3.500
pair_coeff      1 2 0.105 3.500
bond_coeff      1 10 1.8 ${b_eq}
bond_coeff      1 10 1.8 3.3333333333333334814
bond_coeff      2 5 0.805 7.4536
bond_coeff      3 10 1.8 ${b_eq}
bond_coeff      3 10 1.8 3.3333333333333334814
bond_coeff      4 5 0.805 7.4536
velocity        all create $T ${seed} mom yes rot yes dist gaussian
velocity        all create 300 ${seed} mom yes rot yes dist gaussian
velocity        all create 300 123462 mom yes rot yes dist gaussian
timestep        ${dt}
timestep        1
thermo          100
dump            T1 all cfg 600000 *.cfg id type xs ys zs
dump            T2 all xyz 10000 traj.xyz
#dump_modify    1 element Cu
# −−−−−−−−−−−−− Equilibration and thermalisation −−−−−−−−−−−−−−−−
fix             NVT all nvt temp $T $T 10
fix             NVT all nvt temp 300 $T 10
fix             NVT all nvt temp 300 300 10
run             300000
Memory usage per processor = 11.5453 Mbytes
Step Temp E_pair E_mol TotEng Press 
       0          300   -906.89526 0.00012694983    5502.1446    343.62551 
     100    241.80248   -934.13135    7099.8617    11331.469    2181.4789 
     200    295.56809   -990.96601    9955.2592    15278.652    1332.9699 
     300    303.85303   -987.07499    8370.6208      13874.9    700.32223 
     400    298.93221   -967.13161    6307.7511    11726.848    929.75939 
     500    298.13889    -953.1395     5726.218    11142.358    1306.9309 
     600    299.58513     -950.696    5763.0182    11212.499    1282.2968 
     700    299.64451   -962.15207    6406.5425    11845.836    1161.3215 
     800    299.09952    -975.7692    7164.3917    12578.425    1235.6111 
     900    302.79345   -978.61576    7031.9926    12522.094    1076.8049 
    1000    299.65809   -976.63113     6650.554    12075.658    1132.3411 
    1100    295.34858   -976.45831    6328.9781    11662.189    1326.7535 
    1200    302.62204   -977.37466    6207.8077    11695.489    1276.9759 
    1300    301.08855   -984.63693    6445.3398    11892.998    1245.6921 
    1400    298.48098   -994.81158    6606.7811    11988.558    1184.0267 
    1500    301.51201   -1000.6808    6876.5404    12317.201    1268.5071 
    1600    298.94985   -1006.4135    6664.1993    12044.391    1356.3943 
    1700    298.74182   -1011.9425    6365.5139    11735.732    1357.6948 
    1800    301.61239   -1018.0679     6393.932     11819.35    1347.3833 
    1900    299.87055   -1026.3875    6498.8672    11878.754    1344.2338 
    2000    301.90677   -1041.7358    6565.9988    11974.038    1412.8974 
    2100    295.10559    -1051.078    6401.5241    11654.924    1465.1472 
    2200    302.95688    -1068.166    6166.8105    11570.854     1476.689 
    2300    296.45377   -1080.5832    6353.5947    11606.292    1550.5377 
    2400     300.1839   -1092.7818    6276.3935     11596.58    1439.9126 
    2500    293.37384    -1112.313    6376.1732    11531.342    1436.3105 
    2600    299.71033    -1121.297    6301.1792    11582.734    1552.8938 
    2700    303.98736   -1135.5324    6238.7171    11597.408    1576.5419 
    2800    293.28336   -1140.1475    6410.7828    11536.184    1651.3425 
    2900    299.24016   -1153.1183    6259.9372    11499.626    1592.5849 
    3000    299.98737   -1156.3572    6044.3322    11296.745    1613.8907 
    3100    299.46931   -1142.1802    6201.4287    11456.951    1718.5145 
    3200    298.78135   -1145.8574    6438.3768    11675.524     1725.632 
    3300     304.6895   -1145.6626    6243.7017    11607.263    1676.0344 
    3400     298.9873   -1132.1195    6244.4781    11499.764    1692.2641 
    3500    306.33701   -1142.9151    6512.0106    11913.516    1649.0781 
    3600    298.59263   -1142.5953    6480.7094    11717.088    1664.4878 
    3700    305.86567   -1158.4102    6196.7222    11572.663    1692.0915 
    3800     301.2894   -1157.5078    6241.2067    11520.285    1718.5691 
    3900    302.01285   -1158.4755    6187.1211    11480.687    1756.1988 
    4000     302.2969   -1150.0788     6288.544    11596.575    1819.7561 
    4100    299.56677   -1148.4022    6384.9893    11636.371    1695.1507 
    4200    301.20395    -1133.913    6433.3973    11734.245    1645.2581 
    4300    299.58229   -1119.4309    6296.9774    11577.662    1696.6563 
    4400    299.30839   -1110.8253    6266.5376    11549.977    1696.6291 
    4500     299.8246   -1094.0582    6359.4687    11670.703    1653.8851 
    4600    302.81812   -1078.2778    6516.8187    11907.786    1721.8947 
    4700    296.24799   -1071.3001     6491.067    11748.651    1682.9802 
    4800    298.70008   -1061.6299    6590.7671    11910.406    1667.4216 
    4900    300.67921   -1055.5104    6446.9026    11814.942    1634.8785 
    5000    296.19669   -1050.6447    6363.8383    11640.981    1599.5407 
    5100    303.51482   -1047.9521    6481.1506    11917.327    1529.9788 
    5200    297.31984   -1046.8612    6593.9229    11898.844    1528.2365 
    5300    300.08026   -1047.3222    6647.0723    12010.504    1619.2617 
    5400    300.83441   -1047.8855     6519.019    11897.999    1561.4877 
    5500    302.32175   -1049.0649    6451.2157    11860.791    1644.4499 
    5600    298.43758    -1053.535    6305.8616    11627.988     1666.154 
    5700    300.55784   -1057.1897    6482.0877    11845.855    1619.4367 
    5800     297.9072   -1061.5284    6559.4156    11862.217    1601.1499 
    5900    298.57251   -1068.7113    6602.1898    11912.022    1642.4328 
    6000    297.54035   -1075.0509     6458.907    11740.349    1569.7762 
    6100     302.0311   -1086.0702     6391.619     11757.98     1596.238 
    6200    303.43451   -1098.9207    6442.9896    11826.482     1680.384 
    6300     297.9839   -1105.7405    6470.4225    11730.651    1626.1525 
    6400    301.97472   -1120.6593    6277.9881    11608.555    1592.1469 
    6500    299.31668   -1128.8121    6444.9011    11710.531    1709.2077 
    6600    301.49905   -1136.4928    6389.3648    11693.937     1631.968 
    6700    304.01669   -1147.7646    6271.4838    11618.569    1671.5245 
    6800    299.20062   -1145.8677     6328.532    11574.626    1751.6092 
    6900    298.73365   -1142.3117    6367.6674    11607.342    1768.6657 
    7000    296.22598   -1135.2751    6094.5454    11287.684    1682.9945 
    7100    303.22352   -1135.9222    6173.8877    11515.871    1795.2808 
    7200    298.36418     -1148.26    6337.6983    11563.531    1791.4389 
    7300    302.01717   -1151.1099    6340.9763        11642    1746.2025 
    7400    299.24774   -1146.4085    6329.0226    11575.583    1696.8449 
    7500    300.56912   -1156.1413    6384.4686    11649.525    1805.5914 
    7600    303.28368   -1157.4629     6244.719    11566.447    1754.0941 
    7700    298.22821   -1147.8789    6398.6199    11621.929    1880.5356 
    7800    300.85273   -1152.5045    6299.4337    11574.186    1857.4104 
    7900    301.03912    -1157.305    6272.2045    11546.139    1847.4429 
    8000    301.64911   -1151.0619    6282.8974    11576.106    1820.1598 
    8100    298.95983   -1146.3785    6374.1904     11614.63    1886.1796 
    8200    305.27957   -1149.3545    6281.4417    11653.917    1784.7538 
    8300    299.72072    -1135.484    6395.3915    11662.981    1737.7724 
    8400     294.0936   -1123.9353     6438.314    11597.237    1698.2163 
    8500    301.85123   -1114.2888    6413.1852    11747.485    1738.3268 
    8600    298.53913   -1104.1383    6367.2053    11640.898    1636.4171 
    8700    299.03224   -1095.4458    6579.4732    11872.392     1723.749 
    8800    302.48687   -1087.1357    6444.0997    11819.132    1712.7972 
    8900    297.71169   -1081.7192    6362.2732    11640.708    1636.8621 
    9000    301.69777   -1077.8727    6606.8524     11974.29     1678.048 
    9100    301.70561   -1075.1133     6544.877    11915.241    1664.9631 
    9200     302.5916   -1070.9933    6590.8938    11984.306      1715.81 
    9300    297.12151   -1071.4953    6492.0079    11768.058     1597.546 
    9400    299.92945   -1072.6786    6437.9197    11772.774    1689.1139 
    9500    295.94033   -1072.3965    6450.4453     11700.36    1710.0633 
    9600    302.24703   -1077.8616    6576.2713    11955.454    1695.0281 
    9700    304.58739   -1082.4098    6581.1233    12005.756    1705.1184 
    9800    295.15671   -1086.7363     6396.119    11614.953    1732.0097 
    9900    298.99159   -1093.1626    6331.9588    11626.293    1698.1397 
   10000     298.9928    -1105.984      6430.79    11712.328    1817.5357 
   10100    300.29247   -1116.0314    6487.0516    11786.308    1853.5847 
   10200    297.15418   -1124.8336    6348.2759    11571.685    1742.1939 
   10300    299.96305   -1137.9507    6446.1156    11716.415     1758.998 
   10400    306.25097   -1147.3205    6479.6995    11874.961    1816.0205 
   10500    296.98774    -1155.805    6213.8561    11402.739    1737.6952 
   10600    301.17122   -1142.5534    6365.3761    11656.884    1819.1349 
   10700    295.23989   -1149.4345    6426.2436    11584.156    1822.9927 
   10800     302.7025   -1157.3292    6290.9825    11600.428    1843.3812 
   10900    299.75588   -1158.3207    6391.5432    11637.047    1801.2836 
   11000    303.17556   -1174.3849    6385.1298    11687.625    1796.6104 
   11100    303.30422    -1183.758    6337.9762    11633.848    1791.9791 
   11200    297.92695   -1170.7632    6365.8275    11559.817    1805.8958 
   11300    299.89921   -1166.1822    6346.3363    11587.041    1780.0615 
   11400    300.93517   -1168.6629    6449.8671    11710.222    1913.0267 
   11500    300.72985   -1160.6534    6256.5099    11520.488    1859.3966 
   11600    298.52887   -1155.3143    6246.1575    11468.454    1843.8293 
   11700    300.16417   -1163.7458    6434.6179    11683.419     2015.973 
   11800    300.38957   -1165.1565    6232.1371    11484.343    1864.0121 
   11900    298.72374   -1162.5307    6365.6211    11584.865    1873.5497 
   12000     305.9797   -1157.6363    6439.7152    11818.866    1842.7659 
   12100      300.042   -1146.7637    6442.9429    11706.116    1874.1605 
   12200     299.3538   -1139.1063    6430.4447    11686.573    1859.1017 
   12300    295.21131   -1127.8667    6433.5404     11612.41    1809.8427 
   12400    302.91985   -1118.4317    6438.3393    11791.325    1801.7794 
   12500    302.35937   -1109.8063    6352.4469    11702.085    1782.7408 
   12600    299.86625   -1101.8197    6516.0971     11820.46    1798.6724 
   12700    305.24383   -1096.2879    6557.3654    11982.143    1759.8736 
   12800    298.77565   -1093.9243    6523.0987    11812.058    1790.6194 
   12900     305.8582   -1089.4948    6491.8081    11936.504    1734.7036 
   13000    295.95949   -1089.6901     6371.747    11604.777    1722.8296 
   13100    302.12533   -1089.5772    6527.5361    11892.403    1887.3036 
   13200    298.70442   -1090.0341    6472.2905    11763.618    1760.8155 
   13300    296.42977   -1094.1971    6532.9565    11771.527    1709.6149 
   13400    302.91659   -1101.5175    6476.3889    11846.219     1757.171 
   13500    296.11506   -1105.5101    6478.8467    11699.381    1764.0387 
   13600    299.36392   -1111.9556    6442.2536    11725.749    1700.9218 
   13700    309.46815   -1125.3276    6433.5272    11919.512    1859.2667 
   13800    296.29501   -1129.8394    6336.7089    11536.758    1814.1953 
   13900    298.51842   -1134.7115    6345.6152    11588.292    1855.1406 
   14000    300.27217    -1145.835    6339.8148    11608.834    1883.4164 
   14100    299.27814   -1145.3818    6470.7352    11718.972    1996.9221 
   14200    299.66698   -1145.5174    6366.1683    11622.576     1923.722 
   14300    298.05143   -1149.6676     6399.158    11616.902    1919.0977 
   14400    297.75552   -1146.6199    6351.1914    11565.661     1955.987 
   14500    301.32237   -1148.9009    6219.2727    11507.662    1883.4993 
   14600    294.72655   -1141.8359    6468.6695    11623.214    1907.2566 
   14700    303.87989   -1153.6655    6472.5988    11810.861    1907.2831 
   14800    301.23362   -1160.2875    6406.3619    11681.469    1889.9336 
   14900    300.87009   -1163.8553    6315.9412    11579.714    1880.7585 
   15000     302.8751   -1157.2688    6283.3479    11596.541    1889.7026 
   15100    295.94414   -1161.8992    6368.7916    11529.285    1911.0272 
   15200    301.83583   -1162.5444    6348.0229    11633.738    1848.6323 
   15300    296.29311   -1163.6092    6324.8511     11491.09    1890.5036 
   15400    298.05852   -1153.7509    6279.1731    11492.985    1873.1753 
   15500    302.32211    -1152.928    6407.0194    11712.739    1815.4846 
   15600    300.94169   -1140.4331    6455.5011    11744.225    1846.3414 
   15700    305.62743   -1136.4326    6400.6191    11793.448    1853.3977 
   15800    295.71869   -1133.6686    6520.8398    11704.747    1891.9868 
   15900    299.60037   -1119.4891       6423.9    11704.913    1873.7718 
   16000    304.19564   -1115.0865    6398.3789    11781.966    1939.0829 
   16100    298.25792   -1113.5192    6376.9784    11635.282    1886.3716 
   16200    301.77647   -1106.8313    6479.9787    11820.139    1880.5161 
   16300    294.08677   -1102.8726     6489.873    11669.713    1921.7889 
   16400    302.15735   -1102.9251    6458.9736    11811.177    1870.9919 
   16500    294.81456   -1100.6724    6579.5088    11777.097    1875.1771 
   16600    303.68177   -1102.8152    6491.6057    11876.486    1901.2116 
   16700     299.0531   -1100.4628    6438.0451    11726.393    1842.7896 
   16800    292.55849   -1100.7297    6402.4093    11551.743    1817.4574 
   16900    301.22485   -1101.8803    6390.4229    11723.749    1825.6341 
   17000    303.64832   -1103.4137    6572.1198    11955.686    1895.4695 
   17100    303.45284   -1101.3875    6487.8185    11869.235    1890.7053 
   17200     293.5505   -1107.4688    6395.7189    11559.506    1802.6404 
   17300    295.59015   -1105.9848    6413.9394    11622.785    1864.5846 
   17400    302.21611   -1104.2636    6404.8541    11756.974    1930.8331 
   17500    300.58773   -1100.3681    6417.7232    11738.951    1898.2109 
   17600    295.05532   -1106.5607    6376.4158    11573.259    1913.9692 
   17700    301.95296   -1106.4478    6387.2455    11731.559    1894.8297 
   17800    299.63985   -1108.5297    6457.6501    11750.466    1855.7654 
   17900    304.57707   -1115.1929    6453.1392    11844.768    1930.7599 
   18000    296.85277   -1113.5652    6299.7029    11527.942    1867.8073 
   18100    299.37753   -1107.8267    6424.3338    11712.249     1884.045 
   18200    302.35987   -1108.2118    6455.0466     11806.29    1842.7021 
   18300    299.00645    -1107.659    6368.0179    11648.173    1843.5897 
   18400    300.94689   -1110.1632    6340.8623    11659.968    1850.1488 
   18500    297.89975   -1102.8425    6416.8835    11678.212    1806.2433 
   18600    302.48093   -1103.4855    6526.2227    11884.778    1882.9392 
   18700    297.99836   -1102.0295    6337.0737    11601.322    1853.9245 
   18800    301.80708   -1101.4892     6473.325    11819.481    1860.1704 
   18900    293.76297   -1097.7064     6389.464    11567.553    1854.8613 
   19000    302.45163    -1096.593     6444.381    11809.203    1899.8134 
   19100    298.88455   -1098.6284    6520.9549    11807.536    1858.8951 
   19200    300.34156    -1097.162    6413.5832    11732.758    1750.2409 
   19300    304.70372   -1094.2831    6652.6496    12067.894    1888.6338 
   19400    300.11604    -1097.311     6519.904    11834.112    1827.3247 
   19500    297.75301   -1092.5351     6492.059     11760.56    1851.2165 
   19600    297.41477    -1091.452    6469.3408    11731.699    1814.2383 
   19700    297.52823   -1096.3453    6427.7218    11687.611     1824.525 
   19800    303.44536     -1103.75    6465.7547    11844.649    1817.1656 
   19900    299.23435   -1108.1516    6523.5264    11808.058    1892.9305 
   20000     297.1127   -1110.5866    6405.0895     11641.86    1807.7598 
   20100    299.09339   -1114.0819    6392.1327    11667.722    1802.0999 
   20200    301.29784   -1123.1646    6325.7601    11639.362    1822.5884 
   20300    298.26923   -1126.3443    6434.1242    11679.844    1837.5428 
   20400    303.28179   -1127.8749    6514.2069    11865.482    1836.9537 
   20500    301.09568   -1139.2606    6502.5499    11795.737    1896.5234 
   20600    304.88573   -1141.3499    6292.0444     11664.11    1856.9081 
   20700    300.38742   -1139.8349    6422.8685     11700.35    1885.1798 
   20800    297.75563   -1146.0115    6404.8911    11619.972     1929.594 
   20900    303.03976   -1148.6854    6240.7866    11566.081     1905.609 
   21000    297.56155   -1154.5476    6333.8576    11536.256    1882.8562 
   21100    301.36617   -1156.1191    6470.3772    11752.484    1932.9749 
   21200    296.99597   -1168.0814    6344.1257    11520.908    1885.3935 
   21300    302.04562   -1164.8945    6293.0954    11580.942    1817.0062 
   21400    297.16191   -1160.8867    6265.1053    11452.627    1781.4266 
   21500    307.70397   -1161.8049    6450.1292    11861.948    1839.1451 
   21600    294.17552   -1162.7942    6441.1425    11562.957    1809.4909 
   21700    302.43983   -1164.3313    6298.8869    11595.719    1845.1395 
   21800    296.84034   -1147.2243    6408.2826    11602.597    1914.4243 
   21900    297.74517   -1163.2837    6437.2494    11634.834    1850.2951 
   22000    301.55691   -1154.9691    6285.6323    11572.964    1827.8056 
   22100     299.9089   -1152.8944    6437.0242    11691.223     1915.778 
   22200    301.05478   -1150.7001    6386.4527    11667.326    1887.1594 
   22300    297.78909   -1150.3705    6343.2672    11554.704    1829.6527 
   22400    297.56844   -1143.0838     6446.046    11660.055    1887.9861 
   22500    299.34344   -1138.8791    6410.2028    11666.337    1866.3171 
   22600    301.03486   -1140.9814    6342.3376    11632.504    1872.8458 
   22700    298.15323   -1130.1096    6372.0653    11611.542     1896.094 
   22800    300.91705   -1134.4699    6472.3757    11766.537    1895.5847 
   22900    301.06687   -1127.8623    6395.5625    11699.532    1873.6099 
   23000     298.2305   -1128.1725     6451.324    11694.388    1798.3491 
   23100    299.33739    -1122.648      6361.43    11633.666    1785.5212 
   23200    299.42456   -1130.1727    6377.1924    11643.766    1816.0705 
   23300    298.68775   -1130.3542     6416.267    11666.918    1804.5855 
   23400    300.10426   -1130.5191    6370.4218     11651.17    1828.2364 
   23500     300.8908    -1135.245    6641.8567    11934.682    1891.7697 
   23600    295.55532   -1136.0909    6443.9734    11621.968    1740.8597 
   23700    302.30839   -1144.0541    6254.6863    11568.987    1718.4509 
   23800    300.79971   -1147.0823    6367.5453    11646.587    1849.9292 
   23900    298.70417   -1143.6594    6323.5883    11561.285    1799.7058 
   24000     302.6333   -1148.2607     6363.478    11680.513     1850.716 
   24100    303.08313   -1143.4827      6426.19    11757.613    1908.4391 
   24200    304.54374   -1145.8541    6429.5687    11789.824    1933.8007 
   24300    296.05907   -1137.2532    6317.8649    11505.459    1872.1097 
   24400    298.47893   -1144.4271    6339.5842    11571.701     1907.698 
   24500    298.83306   -1142.8751    6414.5434    11655.778    1963.3009 
   24600    301.67303   -1147.1377     6304.019    11601.663    1808.9526 
   24700    296.42398   -1149.6911    6404.5161    11587.469    1823.0217 
   24800    306.32004   -1158.8885     6498.821     11883.99    1893.4299 
   24900    303.91721   -1156.9166    6375.7817     11711.59    1864.2966 
   25000    299.60167   -1156.2183    6313.4215    11557.733    1865.2008 
   25100    298.84984   -1154.7973    6324.8815    11554.552    1873.9412 
   25200    300.16376   -1147.7289    6465.3909      11730.2    1968.2696 
   25300    300.42355   -1145.3297    6358.1687    11630.927    1919.3458 
   25400    298.04829   -1146.0144    6313.3961    11534.726     1896.076 
   25500    302.93327   -1147.3727    6449.5651    11773.897     1888.322 
   25600    297.89981   -1140.7622    6492.4934    11715.904    1853.5768 
   25700    298.18806   -1142.9454    6467.5185    11694.904     1859.138 
   25800    297.04671   -1137.5449     6284.766    11493.168    1808.8613 
   25900    299.90692   -1136.4132    6445.8559    11716.494    1847.8888 
   26000    296.58369   -1130.5904    6482.8212    11688.286    1853.0853 
   26100    301.60443    -1132.952    6416.5923    11726.956    1891.4378 
   26200    297.93745   -1133.3268    6403.4765    11635.126    1813.4831 
   26300    298.41253   -1137.7678    6351.4289    11588.787    1799.5711 
   26400    300.83244   -1130.0625    6478.9582    11775.719    1863.6087 
   26500    299.57438   -1133.9551    6383.1078      11649.1    1846.8039 
   26600    292.92946   -1129.6438    6470.6027    11598.947    1865.7407 
   26700    299.11458   -1131.6395    6432.8089    11691.293    1925.7779 
   26800    296.40362   -1138.1851    6311.4619    11505.485    1913.2291 
   26900    300.95542   -1140.9766    6397.5662     11686.04    1889.2152 
   27000    299.01054   -1141.5113    6475.2761    11721.666    1867.7156 
   27100    302.40812   -1143.3685    6441.5476    11758.664    1905.5892 
   27200    297.59766   -1143.7491    6432.8077    11646.776    1843.8942 
   27300    301.76992   -1141.7029    6497.1746    11802.323    1904.0509 
   27400    296.85308   -1143.5028    6372.0322     11570.34     1823.739 
   27500    302.69636   -1140.1468    6438.4815    11764.978    1890.6623 
   27600    297.67046   -1144.2905    6428.2127    11643.195    1914.0471 
   27700    297.23256   -1154.0549    6358.9602    11554.823    1864.5623 
   27800    304.62132   -1149.1665    6473.0864    11831.687    1929.7133 
   27900    299.68203   -1152.9781    6392.6656    11641.934    1857.5259 
   28000     299.1597   -1154.0478    6335.5902     11572.63    1844.9106 
   28100    304.27395   -1158.7893    6400.3362    11741.893     1909.033 
   28200    303.21967   -1157.8179    6321.0517    11641.057    1884.0377 
   28300    302.43761   -1155.9244    6259.1343    11564.325    1893.0214 
   28400    300.43423   -1148.2678    6437.9099    11707.959    1938.8124 
   28500    303.99928   -1145.9156    6426.5335    11775.096    1934.3305 
   28600    299.99173   -1140.7366    6359.0873    11627.214    1895.9973 
   28700    303.19486   -1140.7628    6448.3087    11784.839    2013.3653 
   28800    296.00701   -1146.6496    6377.8381    11554.924    1900.2927 
   28900    300.16906   -1150.1948    6288.3356    11550.792    1853.6566 
   29000    300.14118   -1150.6206    6459.7003    11721.136    1939.2288 
   29100     295.0901   -1140.8863    6436.7794     11600.04    1890.4952 
   29200    299.23584    -1147.705    6389.2418    11634.251    1903.3134 
   29300    301.47315   -1143.0752    6399.5726    11697.009    1919.6032 
   29400    297.54463   -1138.2638    6430.1843    11648.505     1808.484 
   29500    297.01088     -1135.93    6496.9339    11706.186    1820.1495 
   29600    301.18003   -1130.3808    6474.6542    11778.523    1854.6291 
   29700    294.70256   -1128.8886    6423.7243    11590.704    1847.1092 
   29800    302.14505   -1130.4533    6496.0161    11820.428    1850.4481 
   29900    299.33253   -1123.9909    6435.3232    11706.112    1867.6285 
   30000    303.00811   -1123.3528    6431.6692     11781.62     1860.583 
   30100    299.80355   -1123.3059    6498.6871    11780.224    1851.6053 
   30200     297.6408   -1123.1296    6487.2992    11722.808    1808.9491 
   30300    305.43186   -1122.4478    6489.5437    11892.179    1836.2784 
   30400    300.16786   -1126.6716    6474.6475    11760.602    1845.5951 
   30500    296.71751    -1133.211     6481.998    11687.701    1835.2569 
   30600    299.21161   -1132.6136    6495.3139    11754.897    1844.1311 
   30700    301.09918    -1140.893    6319.5489    11611.178    1866.6144 
   30800    299.86286    -1148.142    6388.4553    11646.423    1893.1148 
   30900    297.72933   -1142.3169    6432.8822    11651.096    1851.7189 
   31000    302.54369   -1151.3041    6464.9883    11777.066    1894.4821 
   31100    293.85463   -1146.3222    6303.8983    11435.329    1843.7784 
   31200    303.94787   -1159.7859    6372.8448    11706.439    1962.6619 
   31300    299.50141   -1160.3933    6315.9834    11553.978    1920.3089 
   31400    299.73222   -1154.6895    6472.4461    11721.076    1928.7354 
   31500    299.49817   -1158.6862    6443.4163    11683.049    1949.3287 
   31600    302.68863   -1157.3921    6351.5076    11660.594     1961.011 
   31700    296.02685   -1158.1412    6313.0299    11479.048    1920.0827 
   31800     301.9406   -1154.9012    6374.5007    11670.097    1987.1394 
   31900     300.7493   -1160.2277    6437.2138    11702.033    2033.3869 
   32000    295.80309   -1162.0921    6239.5262    11396.813     1935.675 
   32100    303.60281   -1163.5902    6310.8489    11633.267    1974.7731 
   32200    299.12279    -1155.672    6415.7139    11650.341     1946.694 
   32300    302.51459   -1159.4337    6449.6957    11753.022      2017.38 
   32400    296.43173    -1164.299    6264.4096     11432.92    1928.6638 
   32500    303.45233   -1157.1422    6343.8781    11669.529    1877.3141 
   32600    298.45398   -1151.9339    6489.6245    11713.702    1943.7962 
   32700    300.31141   -1151.7309    6373.8047    11637.766    1915.2086 
   32800    299.56897   -1145.2464    6446.5459    11701.131     1888.859 
   32900    298.62441   -1141.2858    6330.4466    11568.813     1841.359 
   33000    298.69296   -1141.5578    6424.7547    11664.314    1899.0941 
   33100    295.80489   -1134.4779    6467.0342    11651.974    1816.4501 
   33200    299.63095   -1130.8866      6477.13    11747.399    1828.3928 
   33300    302.37236   -1132.7101    6454.8102    11781.822     1889.894 
   33400    299.19266   -1126.6489    6472.1693    11737.312    1890.0475 
   33500    305.32307    -1128.544    6460.6502    11854.865    1886.1528 
   33600    296.73421   -1127.3761    6367.0589    11578.954    1876.5391 
   33700    304.28438    -1127.606     6458.471    11831.434    1866.1919 
   33800    304.51869   -1128.6272    6454.7134    11831.661    1817.7224 
   33900     296.7208   -1136.1264    6557.8935    11760.752     1894.063 
   34000    300.00141   -1136.3984    6416.6681    11689.339    1823.7284 
   34100    298.56228   -1139.3004    6361.8435    11600.868    1796.4755 
   34200     300.5573   -1134.7991    6534.2856    11820.432    1975.8841 
   34300     300.3991   -1138.6492    6446.6818    11725.598    1922.0924 
   34400    303.50609   -1141.2191    6249.9425    11592.665    1847.8548 
   34500    301.10864   -1148.4001    6392.5329    11676.857    1932.9939 
   34600    296.66572   -1146.7926    6482.3435    11673.359    1981.4655 
   34700    301.53617    -1148.825    6516.5245    11809.557    1924.5615 
   34800    303.52816   -1150.4175    6384.2208    11718.217    1851.5847 
   34900    294.20046   -1149.5019    6379.2734    11514.913    1906.1496 
   35000    302.00729   -1155.3798    6359.8222    11656.365    1996.1429 
   35100    297.35691   -1155.4732    6319.7406    11516.841    1868.5635 
   35200    300.42307   -1153.1907    6531.2529     11796.14    1950.6033 
   35300    300.21704   -1155.7124    6528.8394    11786.803    1972.4492 
   35400    297.72734   -1153.5388    6281.3284    11488.277    1835.3291 
   35500    302.21321   -1160.3807    6320.2998    11616.241    1909.2128 
   35600    302.28114   -1156.6519    6408.9949    11710.116    1989.6356 
   35700    295.29972   -1151.3283    6368.1168    11525.414     1872.726 
   35800    297.55306   -1154.8823    6365.7426    11567.625    1859.7422 
   35900    301.89485   -1151.5436    6372.2901    11670.267    1937.7762 
   36000    300.17831   -1152.6049     6375.137    11635.381    1941.6768 
   36100    299.19834    -1150.172    6427.4142    11669.156    1959.2876 
   36200    297.31233   -1145.1936    6474.5971    11681.025    1955.2908 
   36300    301.05937   -1146.2932    6411.2893    11696.668    1867.1028 
   36400    297.73848   -1140.0439    6436.4357    11657.118    1905.6425 
   36500    299.51273   -1141.6429    6391.9945    11648.981    1867.1138 
   36600    303.06248   -1148.0577    6392.0714    11718.479    1855.9545 
   36700    298.35665   -1146.0449    6490.7101    11718.597    1865.0656 
   36800    299.48189     -1140.45    6542.8285     11800.35    1909.0723 
   36900    298.82461   -1140.7999    6371.0934    11614.223    1799.8803 
   37000    300.11155   -1140.3895     6457.879    11728.912    1848.2398 
   37100    300.25055   -1140.4963     6404.965    11678.861    1822.8098 
   37200    299.84985   -1130.6241    6583.3565    11858.564    1908.0791 
   37300    299.89477   -1131.2932    6461.2237    11736.722    1845.7217 
   37400    298.70299   -1132.1379    6421.5325    11670.726    1836.5727 
   37500    303.77994    -1134.138    6428.1866    11783.841    1917.3614 
   37600    299.94658    -1134.431    6460.0905    11733.558    1850.7146 
   37700    302.47771   -1136.2182    6383.9356    11709.689    1831.3824 
   37800    299.57498   -1139.3376    6516.6285    11777.251    1945.2904 
   37900    299.28252    -1144.714    6425.5332    11674.531    1947.4935 
   38000    302.45173   -1140.6878    6342.2003     11662.93    1922.2895 
   38100    301.18662   -1144.8818    6408.8304    11698.339    1936.6071 
   38200     298.2073    -1147.848    6509.0223    11731.916     1942.949 
   38300    302.15604   -1151.5136     6408.081    11711.668    1863.3218 
   38400    302.99729   -1151.4295    6296.3947    11618.037    1850.2838 
   38500    298.60046   -1160.3312    6454.2354    11673.045    2004.8244 
   38600    301.46157   -1163.1512    6494.7198    11771.832    1938.6638 
   38700    302.04974   -1165.0088    6415.0938    11702.914    1881.1257 
   38800    300.47692   -1170.2806    6389.6428    11638.591    1897.8564 
   38900    299.71496   -1175.3161    6315.3525    11542.987    1859.2441 
   39000    294.29302   -1169.8377    6390.4134    11507.695    1850.4445 
   39100    298.97023   -1166.6961    6388.7065    11609.051    1861.8421 
   39200    303.25679   -1173.6428    6420.0952    11725.068    1898.6726 
   39300    301.51239   -1167.3682    6385.5993    11659.581    1866.7618 
   39400    298.35834   -1173.9074    6313.0694     11513.13    1907.8564 
   39500    295.56682   -1176.1335    6231.2628    11369.461    1834.9911 
   39600    299.87442   -1168.0582    6526.4971    11764.796    1818.0761 
   39700    297.90449   -1166.8346    6491.5223     11688.96    1825.6076 
   39800    296.01222   -1173.3512    6408.8371    11559.333    1921.5785 
   39900     301.1875   -1172.7244    6286.9992    11548.684     1908.244 
   40000    298.18795   -1164.4612    6357.5784    11563.445    1846.5529 
   40100    297.06659   -1159.7598    6525.0089    11711.621    1925.0681 
   40200    295.77113   -1156.8052    6509.2985     11671.19     1874.479 
   40300    302.82033   -1155.6331    6362.2952    11675.954    1868.8645 
   40400    295.89808   -1153.1284    6383.5334    11551.813    1921.9786 
   40500    302.03363   -1147.9606    6368.2082    11672.733    1827.6988 
   40600    302.22232   -1143.3018    6527.5852      11840.8    1853.4106 
   40700    300.94304   -1142.1366    6484.9542    11772.004    1903.3615 
   40800     294.9646    -1137.229    6402.0087    11566.246    1858.6236 
   40900     301.1768   -1138.8465    6421.1373    11716.471    1862.4864 
   41000    302.25341   -1134.4582    6495.1013    11817.824    1936.1536 
   41100    297.93931   -1134.0178    6435.5138    11666.512    1778.3293 
   41200    298.33309   -1133.6243    6567.5837    11807.388    1766.9673 
   41300    296.97267   -1138.8972    6500.7637    11706.232    1858.7535 
   41400    303.00076   -1140.8302    6437.3152    11769.631    1936.8364 
   41500    297.95447   -1138.3587     6363.045    11590.026     1816.876 
   41600    299.78398   -1140.5243    6469.3659    11733.266    1870.5736 
   41700    301.17186   -1144.3365     6412.568    11702.306     1854.462 
   41800    298.77981   -1144.8738    6550.4007    11788.499    1898.3607 
   41900     300.1958   -1146.6879    6421.7307    11688.265    1844.9034 
   42000    304.13699   -1154.2279     6261.174    11604.366    1847.6833 
   42100    295.88919   -1152.8531    6443.6769    11612.042    1918.7401 
   42200    299.14846   -1154.2251     6461.159    11697.782    1886.5201 
   42300    299.60465   -1161.2283    6424.4491    11663.814    1893.0116 
   42400    301.23854   -1155.0686    6382.2194     11662.65    1934.5666 
   42500    293.24205   -1164.8591    6398.1435    11497.951    1909.4143 
   42600    296.30361   -1163.8035    6314.5039    11480.772    1909.1539 
   42700    301.47528   -1161.6139    6384.4441    11663.387    1894.0795 
   42800    298.44788   -1159.0516    6488.0978    11704.927    1892.8001 
   42900    301.70243   -1156.8308    6451.5802    11740.159    1907.2992 
   43000    297.46561   -1163.6324    6325.2857     11516.55    1867.4731 
   43100     300.7055   -1164.7498    6483.7402    11743.102     1943.244 
   43200     299.4274   -1154.8644    6369.0675     11611.01    1904.1645 
   43300    299.32045   -1154.9527    6289.5479    11529.117    1864.4332 
   43400    299.61817   -1160.0195    6320.5471     11561.41    1801.9385 
   43500    302.11811   -1148.7024     6616.438    11922.025    1874.5059 
   43600    299.78541   -1152.1393    6447.3797    11699.696    1791.6524 
   43700    299.94851   -1149.0318    6402.4939    11661.402    1850.1223 
   43800    301.45203    -1143.466    6338.9454     11635.54    1804.2813 
   43900    299.29652   -1147.1582    6532.8632    11779.716    1867.5002 
   44000     299.6241   -1140.3527    6411.9218    11672.578    1836.8955 
   44100    294.49008   -1138.6843     6424.122    11576.766     1812.317 
   44200    301.42872   -1135.7523    6497.9717    11801.781    1888.9049 
   44300    297.06591   -1133.8309    6491.1284    11703.655    1897.2639 
   44400    304.28673   -1136.6382    6587.5898    11951.571    1923.1608 
   44500    294.50358   -1135.2912    6380.8585    11537.184     1796.617 
   44600    300.28416     -1138.59    6407.2452    11683.766    1842.0769 
   44700    291.50087   -1142.6536    6489.0367    11573.852    1869.0961 
   44800     298.6236   -1142.2376    6410.2759    11647.673    1898.4008 
   44900    302.60081   -1140.6894    6470.7249    11794.637    1888.8796 
   45000    301.18253   -1141.5178    6501.2159    11794.001    1900.9615 
   45100     299.3474   -1147.1671    6472.4311    11720.362    1899.6118 
   45200    299.40078   -1146.5841      6380.45    11630.104    1838.9776 
   45300    305.14128    -1148.299    6406.4267    11777.003    1858.9642 
   45400    299.99387   -1155.4601    6429.8355    11683.284    1939.1337 
   45500    297.80676   -1158.5093    6435.9299    11639.605    1964.7695 
   45600    300.89462   -1155.5244    6383.1469    11655.774    1871.6302 
   45700    297.42665   -1155.0024    6425.1308    11624.192    1898.7851 
   45800    305.08709   -1154.2016    6406.9495    11770.466    1851.0383 
   45900    299.64288   -1154.5188    6461.6873    11708.579    1870.8761 
   46000    302.19629    -1164.266    6320.4619    11612.156    1830.2647 
   46100    299.05299   -1162.3622    6433.9404    11660.387    1936.8972 
   46200    300.22842   -1160.2414    6327.5529    11581.231    1854.8071 
   46300    300.04577   -1159.5606    6457.8049    11708.262     1895.196 
   46400    301.16465    -1163.859     6399.735    11669.797    1864.7815 
   46500    299.21563   -1161.4266    6381.6937     11612.55    1904.8927 
   46600    302.36627   -1161.4332    6404.9253    11703.084    1913.6632 
   46700    296.54749   -1164.7628    6319.7494    11490.269    1793.1236 
   46800    300.33225   -1160.1626    6543.3486    11799.324    1829.5798 
   46900    297.77234   -1149.9831    6479.6883    11691.154    1813.2254 
   47000    299.97436   -1150.9709    6310.5536    11568.075    1833.8978 
   47100    298.89777   -1152.0344    6457.2592    11690.717    1974.9014 
   47200    301.17383   -1149.0416    6453.2738    11738.349    1903.0248 
   47300    295.77259   -1145.4871    6405.1699     11578.41    1827.2148 
   47400    303.19375   -1147.7636    6464.2692    11793.775    1873.4879 
   47500    299.04063     -1144.68    6481.7806    11725.645    1852.0121 
   47600    300.47585   -1147.6991    6482.4278    11753.934    1854.0472 
   47700    300.44164   -1139.4557    6399.9188    11678.938    1776.7477 
   47800    297.96229   -1145.0816    6455.6143     11676.04    1848.4319 
   47900    304.14781   -1148.9749    6537.3258    11886.002    1930.9311 
   48000    300.05719    -1148.129    6573.0537    11835.186    1924.9532 
   48100    300.42865   -1153.3995     6259.659    11524.457    1810.5041 
   48200    300.15803   -1150.4832    6470.3317    11732.264    1962.6411 
   48300     302.6403   -1152.7177    6391.7343    11704.462    1878.9424 
   48400    301.29895   -1154.5759    6469.1363     11751.35    1931.1984 
   48500     299.5238   -1158.6789    6407.7996    11647.987    1887.5429 
   48600    295.71535   -1167.6643    6411.8291     11561.67    1788.3158 
   48700    303.15636   -1170.3613     6439.236    11745.345    1815.7293 
   48800    300.07108   -1167.8897    6329.7301    11572.398    1803.1779 
   48900    299.44032   -1171.2877    6497.0577    11722.853    1876.3208 
   49000    296.50974   -1165.2139    6386.3149    11555.577    1896.0007 
   49100    299.59053   -1174.2103    6309.1902    11535.272    1949.3061 
   49200    302.13672   -1166.1442    6349.7985    11638.342    1911.0158 
   49300    295.44083    -1161.885    6489.6641    11639.419    1891.0777 
   49400    302.58765   -1170.4728    6386.9728    11680.821    1902.3474 
   49500    295.84767   -1169.0184     6390.972    11542.285    1863.7956 
   49600    301.42265   -1173.3355    6340.9625     11607.06    1824.2781 
   49700    295.92915   -1176.2913     6469.176    11614.957    1839.8361 
   49800    297.75092   -1171.2882    6475.0455    11664.749    1793.1673 
   49900    299.95768   -1168.8767    6396.5224    11635.781    1846.6167 
   50000    302.09444   -1167.8892    6415.7782    11701.673    1911.8886 
   50100    297.19583   -1162.0654    6398.4381    11585.506    1839.5332 
   50200    301.79222   -1152.8549    6390.3228    11684.795    1897.0913 
   50300    300.24785   -1154.2619    6359.4285    11619.501    1857.2993 
   50400    292.01086   -1153.6114    6426.2554    11511.008    1810.4043 
   50500    297.85761   -1145.7731    6486.9687    11704.466     1830.949 
   50600    301.55048   -1143.9451    6504.7398    11802.958    1856.9198 
   50700    299.10141   -1144.9054    6459.2915    11704.229    1854.6027 
   50800     301.1831    -1144.288    6380.3303    11670.357    1874.0561 
   50900    301.78191   -1140.4157    6532.1916    11838.883    1905.5701 
   51000    297.79903   -1140.3864    6485.1085    11706.741    1824.8398 
   51100    302.06649   -1143.6087    6450.5994    11760.178    1835.1256 
   51200    300.70864   -1142.8149    6321.0428    11602.407    1777.8021 
   51300    297.60931   -1144.0098    6507.4157    11721.372    1868.0855 
   51400     303.6878     -1141.96    6490.6509    11836.515    1928.7957 
   51500    298.13498   -1141.5251    6418.5617    11646.233    1916.8818 
   51600     295.5653   -1143.8337    6402.8517    11573.317    1905.7844 
   51700    301.41115   -1145.1667    6333.2021    11627.222    1885.2984 
   51800    298.54913   -1154.6132     6512.386    11735.817    1924.8648 
   51900    298.95659    -1157.675    6471.5356     11700.61    1893.3467 
   52000    300.36598    -1162.835    6404.9833    11659.007    1814.8134 
   52100    296.45782   -1169.6832    6461.8458    11625.529    1792.0634 
   52200    301.33604   -1163.6596    6344.3809    11618.303    1835.1797 
   52300    300.13634   -1163.3035    6427.0823    11675.731    1888.4759 
   52400    298.04024   -1159.4923    6371.7913    11579.471    1832.2473 
   52500    303.02494   -1158.0254    6409.9298    11725.567    1898.5056 
   52600    297.53885   -1158.4217    6455.6298    11653.669    1866.0593 
   52700    297.85744   -1171.9925    6408.6136    11599.888    1858.3375 
   52800     299.8291   -1175.4514    6355.2275    11585.165    1900.5732 
   52900     298.1046   -1174.4137    6393.7895    11587.923    1889.5538 
   53000    304.15907   -1177.5706    6492.9751    11813.296    1862.7329 
   53100    296.56679   -1176.4173    6395.6239    11554.901    1898.0336 
   53200    303.29211   -1169.1708    6395.3989    11705.599    1956.8559 
   53300    300.70089   -1169.7401    6373.5415    11627.814    1895.4422 
   53400    297.04693   -1162.2755    6373.6247    11557.301      1940.21 
   53500    303.41903   -1161.5014    6448.8414    11769.422    2001.8973 
   53600    298.79855   -1162.6501    6275.6165    11496.339    1877.4483 
   53700    302.26123    -1157.291    6423.6242    11723.681     1882.634 
   53800    300.33206   -1155.7254    6516.6212     11777.03    1973.1341 
   53900    300.81138   -1160.9776    6312.8216    11578.218    1862.8756 
   54000    300.21005   -1166.7546     6434.459    11681.231    1877.0871 
   54100    296.18174   -1161.8972    6425.5847    11591.156    1831.9394 
   54200     306.9108   -1154.1755    6441.0546    11843.557    1899.7713 
   54300    301.24267   -1156.3418    6428.2625    11707.508    1874.1126 
   54400    299.52605   -1149.5694    6425.2328    11674.578    1834.7127 
   54500    299.57394   -1146.3023    6468.9346     11722.57    1866.5249 
   54600    300.86247   -1147.2427    6331.6929    11611.915    1872.6709 
   54700    297.76103   -1149.0825    6344.7429    11556.868    1884.9685 
   54800    306.27667   -1152.0428    6430.4472    11821.536    1915.4592 
   54900    296.53545    -1155.086    6452.0842    11632.023    1880.8664 
   55000    299.43711   -1155.3224    6333.8347    11575.527    1811.7071 
   55100    301.04022   -1152.1538    6497.1737    11776.282     1783.928 
   55200    297.02075   -1152.3374    6469.9367    11662.992    1807.8117 
   55300    302.26311   -1153.7708    6339.8363    11643.453    1896.6666 
   55400    297.49413   -1146.3813    6329.1995    11538.324    1861.8326 
   55500    303.47569   -1153.7747    6522.5074    11852.025    1914.1098 
   55600    300.11611   -1151.3064    6461.0085    11721.222    1947.6632 
   55700    298.43089   -1156.6684    6464.2966    11683.146    1902.6972 
   55800    298.78503   -1156.2764    6353.1471    11579.954    1904.2294 
   55900     301.7601   -1162.8116     6394.099    11677.929    1966.2102 
   56000     299.0987   -1161.5888    6351.5404    11579.736    1874.4338 
   56100    298.81015   -1157.5448    6447.3875    11673.463    1880.5397 
   56200     300.2295   -1152.1272    6532.8055    11794.621    1948.0362 
   56300    300.86219   -1156.4316    6457.5089    11728.536    1970.1249 
   56400    302.14664    -1155.258    6290.7154    11590.357    1881.8798 
   56500    296.15237   -1154.0653    6400.1298    11572.906    1912.8155 
   56600     300.3933   -1154.8799    6329.0366    11591.599    1834.6709 
   56700    296.83015   -1149.5071    6515.4684    11707.282    1858.7643 
   56800    299.30701   -1155.8935    6408.8192    11647.161    1855.1118 
   56900    301.64381   -1160.2975     6284.453    11568.313    1844.9729 
   57000    297.79134   -1156.4623    6323.4617    11528.854    1864.7239 
   57100    305.42402   -1152.2245    6421.9271    11794.618    1902.8714 
   57200    296.71336    -1149.839    6414.2991    11603.286    1889.5956 
   57300    301.97099   -1147.5053    6441.7264    11745.368    1876.0703 
   57400    301.34405   -1146.0346    6438.0129    11729.732    1893.7443 
   57500    296.80056   -1149.9371    6329.8073    11520.559    1905.2988 
   57600    301.84008     -1150.23    6316.6395     11614.76    1884.5642 
   57700    300.50697   -1149.7875    6432.8013    11702.884    1837.2889 
   57800     299.4528    -1149.841    6503.8995    11751.408    1850.9387 
   57900    300.70043   -1150.4482    6417.2676    11690.823    1843.8481 
   58000    296.74006   -1148.1022    6400.0458     11591.34    1786.5314 
   58100    304.37256   -1147.7598    6314.9602    11669.653    1775.5064 
   58200     296.6541   -1141.0126    6442.9934     11639.54    1909.7635 
   58300    299.78645   -1149.8608    6400.0619    11654.679    1838.9941 
   58400    298.42572   -1146.6287     6404.027    11632.806    1847.3271 
   58500     303.3934   -1154.4844    6345.3483    11672.398    1919.4108 
   58600     296.7973   -1152.0283    6506.7642    11695.355    1938.4344 
   58700    297.87579   -1155.9278     6400.645    11608.376     1846.355 
   58800    306.05049   -1155.7744    6335.3451     11717.87    1877.3163 
   58900    300.29207   -1153.4806    6424.8699    11686.669    1933.4726 
   59000    299.47844   -1152.1275    6479.0833    11724.853    1862.6178 
   59100     301.6146   -1150.0335    6429.3364    11722.836    1879.7402 
   59200    301.57127   -1157.5874    6444.4886    11729.509     1929.018 
   59300    295.75901    -1153.965     6294.929    11459.402    1853.2073 
   59400    305.03515   -1153.7934    6385.9893    11748.804      1815.34 
   59500    298.35482   -1152.8546    6550.1493    11771.188    1914.3985 
   59600    296.09877   -1161.5864    6387.2388    11551.348    1866.1965 
   59700    302.80642   -1162.2909    6290.2354    11596.939    1840.7699 
   59800    298.69961   -1154.7402    6441.5094    11668.028    1917.0259 
   59900     303.3884   -1155.0818    6487.0469    11813.393    1939.3174 
   60000    300.35372   -1156.3572    6430.5483    11690.788    1800.5605 
   60100    299.21839   -1156.5502    6418.9342    11654.726    1856.1171 
   60200    301.05354   -1153.0927    6377.8781    11656.332    1846.4885 
   60300    299.74656   -1151.3241    6431.0261    11683.327    1798.9831 
   60400    302.32009   -1150.1558    6483.5141    11791.963    1855.7616 
   60500    304.51768   -1157.0875    6317.6335    11666.099    1848.7409 
   60600    300.31708   -1151.2625    6429.6368    11694.188    1906.6021 
   60700    298.77263   -1152.5986    6414.6424    11644.863    1920.1317 
   60800    300.19092   -1157.3111    6373.3521    11629.159    1860.5484 
   60900      299.282   -1150.0679    6492.6308    11736.263    1864.6655 
   61000    298.36838   -1154.5807    6405.0867    11624.689    1796.3003 
   61100    304.55151   -1148.9738    6351.3649    11708.667    1836.8218 
   61200    297.35497   -1150.8633    6459.7084    11661.378    1916.5127 
   61300    307.59911   -1147.7605    6463.9311    11887.554    1846.9013 
   61400    298.99799   -1148.9527    6384.2268    11622.907     1823.336 
   61500    302.87579   -1146.5038    6488.9966    11812.969    1898.7406 
   61600    295.60879   -1151.9279    6437.7783    11601.079     1838.977 
   61700     305.0648   -1156.5058    6281.9516    11642.687    1783.6151 
   61800    300.86455   -1161.6288    6463.0304    11728.911     1885.741 
   61900    303.27334    -1158.224    6394.1549      11714.9    1825.0329 
   62000    298.18405   -1163.9045    6372.9924    11579.333    1830.3185 
   62100    300.83322   -1160.7139    6362.0182    11628.144    1838.2458 
   62200    303.41486   -1164.5574    6459.8776    11777.313    1812.5949 
   62300    297.57395   -1159.9509    6444.5332    11641.793    1776.1701 
   62400    299.00345   -1163.6981    6332.6311    11556.683    1846.0777 
   62500    301.32612   -1171.1122    6373.1947    11639.453    1855.0796 
   62600    301.24432   -1167.4577    6339.0459    11607.211    1805.8821 
   62700    297.17508   -1166.9531    6423.6038     11605.34    1896.2674 
   62800    300.87508   -1163.8615    6486.9617    11750.835     1908.218 
   62900    301.71913   -1168.7791    6441.3914    11718.378    1846.4421 
   63000    296.11194   -1169.6043    6394.8436    11551.217    1899.0448 
   63100    302.12788   -1171.0158     6279.826    11563.309    1893.1052 
   63200    299.92651   -1172.7557    6466.6235    11701.338    1877.6801 
   63300    301.19256   -1162.5365    6473.4379    11745.418    1886.6042 
   63400    298.61065   -1166.6375    6393.5047    11606.226    1905.7273 
   63500    300.97674   -1164.0448    6412.8461    11678.708    1938.3591 
   63600    301.88456   -1160.3407    6357.8604     11646.82    1857.4946 
   63700    296.89092   -1161.2506    6338.6137    11519.982    1870.7498 
   63800    300.54916   -1161.7924    6513.9162    11772.895    1906.6901 
   63900    299.88448   -1156.6735    6540.9896    11790.888    1905.9878 
   64000    299.74758   -1152.6207    6357.3494    11608.376    1831.8591 
   64100    302.68135    -1155.201    6371.4365    11682.558    1886.2057 
   64200    297.08125   -1146.7503    6484.3817    11684.316    1864.5122 
   64300    300.94234   -1149.1224    6393.4838    11673.533    1851.0195 
   64400    301.09847   -1145.0779    6427.9263    11715.355    1888.0783 
   64500    299.11365   -1145.6312    6575.2017    11819.675    1918.3005 
   64600    307.90657    -1149.223    6445.6383    11874.367    1877.4722 
   64700      299.113    -1145.086    6449.1146    11694.119    1888.5326 
   64800    303.14276   -1145.1717     6485.075    11816.083    1879.3956 
   64900    296.08327   -1148.1445    6423.1595     11600.38     1850.647 
   65000    296.92473   -1149.7661    6402.6577    11596.233    1861.7918 
   65100    300.31606   -1142.8802    6506.1643    11779.076    1920.0652 
   65200    296.78322   -1147.6368    6345.3678    11538.049    1872.5181 
   65300    304.02176   -1146.5363    6470.4442    11818.866    1977.4319 
   65400     299.5513   -1147.4153    6404.2878    11656.326    1921.9524 
   65500    300.80171   -1148.5778    6369.9397    11647.529    1844.8682 
   65600    302.07144   -1151.4289    6481.8802    11783.744     1880.999 
   65700    304.17765   -1155.9188     6421.462    11763.832    1886.4151 
   65800    297.84042   -1154.3905    6397.2115    11605.724    1894.6434 
   65900    302.95522    -1161.421    6472.1139    11782.866    1883.2449 
   66000    298.10331   -1156.1714    6499.0903    11711.439    1880.8471 
   66100    302.39912   -1154.9832    6420.7429    11726.053    1832.1049 
   66200    298.50408   -1162.7511    6330.7404    11545.071    1794.2239 
   66300    301.86281   -1159.1634    6483.6586    11773.331    1925.3468 
   66400    299.45199   -1159.8019    6424.0333    11661.564    1897.5179 
   66500    301.80462   -1160.4908    6357.4503    11644.552     1910.056 
   66600    290.96187   -1162.7665    6328.6999    11381.887     1853.056 
   66700    299.56161   -1164.3876    6391.2334     11626.52    1912.4813 
   66800    295.92073   -1164.5925     6474.702    11632.002    1854.2725 
   66900    302.50498    -1161.882    6504.4209    11805.094    1906.5576 
   67000    298.03215   -1165.2612    6379.1253    11580.864    1865.8451 
   67100    297.72861   -1156.0102     6424.203    11628.708    1830.0554 
   67200     299.4127   -1160.7206    6406.5539    11642.326    1902.5483 
   67300    298.54647   -1151.5719    6294.2122    11520.628    1868.4022 
   67400    302.14251   -1156.2236    6445.9143    11744.502     1964.088 
   67500    301.41296   -1155.5992    6495.6656    11779.292    1923.2427 
   67600    301.08713   -1159.1593    6485.8585    11758.964    1899.2087 
   67700    300.84484   -1157.2788     6364.023    11633.833    1798.6112 
   67800    297.36908   -1161.0132    6472.2676    11664.089    1891.9927 
   67900    305.64604   -1157.4292    6419.6773    11791.907     1883.651 
   68000    300.45876   -1156.8187    6419.7778    11681.799      1818.82 
   68100    302.54027   -1154.9013     6475.738    11784.145    1867.6198 
   68200    297.83948   -1158.2944    6449.5941    11654.183    1848.8764 
   68300    300.33562   -1157.6153    6478.7127    11737.307    1867.3511 
   68400    299.75355   -1155.1995      6352.98    11601.555    1822.3583 
   68500    299.53057   -1158.3391    6380.5562    11621.228    1864.0296 
   68600    303.59044   -1159.7086    6365.6116    11691.647    1877.7628 
   68700    302.01471   -1155.1408    6472.7942    11769.734    1890.4427 
   68800    300.03043   -1161.5247    6500.0249     11748.19     1857.088 
   68900    298.02327    -1160.419    6459.6474    11666.038    1896.0191 
   69000    299.41632   -1155.7184     6352.943    11593.795    1877.1107 
   69100    302.63297   -1156.0247    6457.0068    11766.271    1987.6101 
   69200    300.43862   -1153.8844    6426.6123    11691.138    1897.7151 
   69300    303.76092   -1158.5385    6408.8948    11739.742    1884.1352 
   69400    297.76186   -1157.8351    6367.5576    11570.948     1923.018 
   69500     296.4639   -1153.9487    6407.4785    11587.026    1899.0611 
   69600    296.72697   -1156.5794    6482.6684    11665.205    1841.4632 
   69700    294.73698   -1152.2186    6385.0024    11529.387    1893.6917 
   69800    298.17587   -1160.9934    6371.4753    11580.552    1880.9233 
   69900    303.12609   -1156.9545    6437.1835    11756.053    1864.3877 
   70000    298.47466   -1156.7621     6503.146    11722.837     1888.464 
   70100    301.45242   -1160.1296    6512.3921    11792.331    1881.4769 
   70200    302.97095   -1149.8511    6465.5463    11788.205    1813.0922 
   70300    297.09148   -1151.0068    6431.8768    11627.774    1865.2331 
   70400    300.35302   -1156.4226    6401.0618    11661.221    1866.3765 
   70500    298.17751   -1160.5628      6352.56    11562.102    1719.5711 
   70600    295.50277   -1155.6787     6578.291    11735.575     1849.431 
   70700    303.61218   -1149.4714    6550.7249    11887.462    1919.1658 
   70800    296.17371   -1156.6267    6352.2896     11522.96    1794.7442 
   70900    300.47214   -1158.3767     6356.934    11617.683    1835.1512 
   71000    301.88307   -1158.1163    6375.9343    11667.087     1856.028 
   71100    302.60233   -1160.1073     6397.183     11701.71    1815.4734 
   71200    300.87942   -1158.8612    6433.5122    11702.478    1782.2517 
   71300    299.80958   -1161.5272    6498.3481    11741.793    1924.2878 
   71400     299.2342   -1158.6237    6331.2789    11565.335    1867.6437 
   71500     295.8406   -1163.4371    6344.1131    11500.857    1884.8593 
   71600    299.01959   -1168.6916    6382.7723    11602.175    1885.1567 
   71700    304.06416   -1160.9841    6490.4615    11825.342    1913.3763 
   71800     306.3184   -1162.8193    6468.1504    11849.354    1862.9037 
   71900    305.48539   -1167.8569    6451.2003     11809.57    1906.5199 
   72000    300.41466   -1170.6276    6497.2245    11744.495    1916.5478 
   72100    298.48102   -1164.6034    6328.9488    11540.934    1823.1612 
   72200    299.14181   -1168.9228    6333.3118    11555.095    1840.6655 
   72300    300.53927   -1170.0377    6497.6899    11748.213    1916.7315 
   72400    299.63569   -1172.6987    6455.7585    11684.317    1903.5223 
   72500    300.25512   -1172.4808    6432.4726    11674.482    1874.8042 
   72600     300.1564   -1169.0376    6473.5194    11716.863    1977.5197 
   72700    299.82516    -1166.938    6304.4772    11542.844     1878.068 
   72800    300.10359   -1165.2829    6323.4366    11569.407    1828.4454 
   72900    299.20491   -1164.3967    6543.0208    11770.678     1915.038 
   73000    304.64854   -1159.4562    6554.5337    11903.426    1982.5086 
   73100    299.98223   -1164.0002    6313.0208    11557.681    1847.4956 
   73200    300.91051   -1156.4991    6347.4059    11619.398    1873.7688 
   73300    299.49281   -1156.9126    6411.8763    11653.168    1951.7185 
   73400    301.78138   -1156.5613    6464.7301    11755.265     1916.529 
   73500    294.70456   -1151.5284    6379.7017    11524.084    1779.7125 
   73600    303.45219   -1151.0206    6465.2405     11797.01    1984.4632 
   73700    297.32212   -1155.3742    6442.7417    11639.198    2003.9929 
   73800    302.41188   -1152.2721    6335.0169    11643.311    1892.6139 
   73900    301.64536   -1150.4131    6532.8531     11826.63    1990.2083 
   74000    300.85193   -1149.8306    6432.7558    11710.165    1937.2803 
   74100    297.99837   -1149.7011    6511.5027     11728.08    1978.8089 
   74200    301.36441   -1150.8918    6332.9886    11620.285    1901.0718 
   74300     298.3616   -1151.7444    6410.6865     11632.98    1920.0929 
   74400    299.16883   -1154.7366    6570.5545    11807.101    1885.9313 
   74500    299.76808   -1155.5506    6407.9552     11656.49    1845.7259 
   74600    298.34395   -1150.3601    6374.1996      11597.5    1915.3318 
   74700    304.81078   -1149.9414    6500.3381    11862.211    1910.9744 
   74800    299.89852   -1158.0376    6430.6272    11679.461    1825.7427 
   74900    307.40389   -1157.1607    6365.2724    11775.324    1868.8299 
   75000    299.29838   -1157.7673    6450.6154    11686.899    1907.0019 
   75100     307.0813   -1163.2912     6456.837    11853.867    1948.1064 
   75200    298.26433    -1171.845    6367.6016    11567.716     1896.831 
   75300    299.39065    -1165.141    6441.6952    11672.576     1911.624 
   75400    298.99382   -1162.6005    6502.2173    11727.161    1935.9515 
   75500    302.68465   -1169.0238    6318.1999    11615.569    1919.1247 
   75600    302.74261   -1171.1551    6404.7614    11701.238    1988.2889 
   75700    296.32967   -1160.8233    6422.9492    11592.755    1977.9393 
   75800    299.71375   -1165.0323    6323.5377     11561.43    1918.5039 
   75900     300.1694   -1175.0734    6385.9853    11623.571    1918.4007 
   76000    296.42981    -1176.391     6470.088    11626.465     1954.981 
   76100    302.94751   -1164.2008    6466.5561    11774.364    1944.0071 
   76200    306.23172   -1172.1508    6394.5198     11764.54    1976.0121 
   76300    297.82521   -1168.0304    6377.5328    11572.081    1955.6974 
   76400    298.13056   -1159.9709    6404.7016    11613.833    1879.2942 
   76500    304.14804   -1157.5051    6434.5885     11774.74    1960.9743 
   76600    296.41389   -1162.3836    6494.4829    11664.527    1976.2925 
   76700    301.31652   -1161.0857    6378.0448    11654.124    1949.6501 
   76800    298.51378   -1159.0625    6364.3064    11582.533    1899.2632 
   76900    301.46785   -1158.0932    6419.4459    11701.751    1877.3277 
   77000    296.40245   -1158.9146    6568.3624    11741.631    1899.3385 
   77100    300.80626   -1160.6705    6450.1202    11715.714     1881.487 
   77200    295.28634   -1151.7856    6401.0347    11557.589    1886.6224 
   77300    294.94177   -1146.8014    6426.9218    11581.099    1872.2331 
   77400    306.13065   -1147.2435    6491.3148    11884.083    1883.2892 
   77500    295.58899   -1153.1358    6333.2334    11494.903    1874.2053 
   77600     302.0426   -1146.3188    6474.0068    11780.365    1950.5356 
   77700    294.76615   -1148.4035    6389.9137    11538.737    1868.1803 
   77800    302.94503   -1150.9385    6503.4514    11824.469    1934.1631 
   77900    297.74503   -1154.2151    6337.6639    11544.314    1852.3398 
   78000    294.65293   -1152.8994    6457.9612    11599.869    1890.5907 
   78100    302.38724   -1152.6595    6564.3212    11871.701    1990.9694 
   78200    299.71422   -1155.6523    6306.1734    11553.455    1820.8037 
   78300    300.89804   -1149.5896    6485.5428    11764.178    1875.6385 
   78400    301.77106   -1151.4724    6487.7636    11783.167    1910.1961 
   78500    298.81451   -1158.2259    6325.0142    11550.502    1872.3727 
   78600    301.18681   -1162.8644    6328.4202     11599.95    1939.2863 
   78700    299.66008   -1160.1821    6565.4293    11807.025    1986.7572 
   78800    300.41442   -1152.9849    6401.5592    11666.467    1818.8751 
   78900    297.37362   -1165.5862    6289.3099    11476.655    1827.6535 
   79000    302.28713   -1166.6292    6351.2158    11642.487    1931.4882 
   79100    301.22294   -1167.3693    6503.0313    11770.828    1906.9953 
   79200    296.01377   -1168.0948    6431.9409    11587.726    1893.7053 
   79300    300.25704   -1168.3459    6362.8583    11609.043    1901.5049 
   79400     305.2156   -1171.1732    6411.3108    11760.601    1871.5123 
   79500    296.36185   -1170.2681    6377.6649    11538.713    1896.7969 
   79600    299.59581    -1158.152    6424.3647    11666.617    1901.3052 
   79700    306.94704   -1161.8058    6366.0027    11761.649    1896.8013 
   79800     301.1944    -1175.197    6544.6062    11803.965    1975.7321 
   79900    303.14422   -1165.2622    6392.1282    11703.077     1950.025 
   80000    304.71722   -1166.1401    6363.4101    11707.086    1941.5888 
   80100    299.46489   -1162.2024    6429.7186    11665.124      1930.27 
   80200    304.71104   -1158.1086    6467.4817    11819.057    2009.7885 
   80300    300.62833   -1168.6688    6438.9038    11692.698    1928.5517 
   80400    300.38516   -1167.6963    6436.3922    11685.964    1959.1854 
   80500    301.26321   -1160.4251    6416.6999    11692.301    1887.8363 
   80600    302.85387   -1158.7022    6377.7656    11689.072    1837.8946 
   80700    300.31253   -1159.7177    6554.2832    11810.282    1997.2766 
   80800    299.99712   -1159.0587    6307.8963    11557.816    1893.9941 
   80900    295.14036   -1151.0718    6425.8387    11579.988    1870.7338 
   81000    302.15688   -1152.5878    6540.6446    11843.175      1874.65 
   81100    303.18181    -1153.298    6446.1095    11769.826    1851.6867 
   81200    302.08847   -1161.3487     6366.253    11658.561    1874.3027 
   81300    300.28752   -1157.2137    6452.3824    11710.351      1862.74 
   81400    301.52103   -1160.2299    6519.8659     11801.17    1877.4706 
   81500    300.57493   -1161.6484    6453.5636    11713.237    1929.1501 
   81600    296.73149   -1157.9102    6411.8219    11593.125    1891.9696 
   81700     301.0796   -1156.3476    6400.1021    11675.858    1889.1276 
   81800    300.85697   -1162.8276    6407.4318    11671.952    1945.6359 
   81900     300.9848   -1160.5002    6481.8194    11751.398    1934.4117 
   82000     302.0929   -1160.7039    6379.2173    11672.265    1826.6053 
   82100    301.36453    -1156.227    6507.9401    11789.904    1941.2201 
   82200    297.76044   -1156.9148    6399.5786    11603.859    1906.8603 
   82300     301.8599   -1159.0485    6386.0309    11675.756    1838.4214 
   82400    294.18614    -1163.411    6396.2606    11517.685    1885.5061 
   82500    300.65127   -1160.8326    6400.0833    11662.204    1925.6209 
   82600    302.29555     -1163.68    6458.7101    11753.111    1865.8463 
   82700    297.93806   -1170.7984    6436.1001    11630.291    1900.9561 
   82800    302.60942    -1164.177    6448.5677    11749.177    1909.4795 
   82900    301.25071   -1155.7378    6469.1847    11749.206    1919.9285 
   83000    294.67115   -1158.8066    6436.6243    11573.015    1905.6571 
   83100      300.285   -1162.5779    6442.2417    11694.792    1861.8978 
   83200     297.8667   -1164.1027    6509.8228    11709.185    1927.9604 
   83300    306.74203   -1162.7335    6347.9411     11738.28    1870.5635 
   83400    296.34758   -1161.4291    6469.2167    11638.799    1930.3299 
   83500    299.96606   -1155.5882    6452.5074    11705.234    1853.2018 
   83600    306.26445   -1162.1835     6338.849    11719.535    1842.4226 
   83700    298.24469   -1162.7037    6396.3535     11605.19    1944.7803 
   83800    299.26639   -1161.7551    6403.7936    11635.406    1947.6446 
   83900    301.71525    -1161.724    6393.8749    11677.834    1910.4255 
   84000    297.69841   -1157.4966    6419.6292    11622.002    1907.9074 
   84100    301.73568   -1157.7495    6457.0809    11745.451     1918.198 
   84200    300.64236   -1162.8452    6393.3265    11653.244    1879.3745 
   84300    296.99467   -1163.5196    6374.2739     11555.59    1845.6275 
   84400     307.4284    -1161.712    6461.4808    11867.505    1914.0926 
   84500    298.40188   -1156.8598    6405.1491    11623.188    1867.6863 
   84600     298.4158   -1157.7922    6409.6196    11627.023    1835.5924 
   84700    302.93147   -1159.3578    6479.9365    11792.245    1919.6052 
   84800    300.52197    -1159.238    6389.5905    11650.543    1927.3487 
   84900    298.48814   -1163.9622    6338.8666    11551.646    1877.9581 
   85000    301.95403   -1158.7515    6464.2198    11756.253    1939.2241 
   85100    302.38316   -1165.1609    6410.1959    11704.987       1952.4 
   85200    301.48786   -1155.1757    6447.5446    11733.194    1891.6861 
   85300    301.58499   -1164.1721    6473.5163    11752.245    1864.8326 
   85400    297.60878    -1162.145    6386.4171    11582.227    1881.8508 
   85500    302.49146   -1161.2192    6439.2803    11740.327    1938.5892 
   85600    294.17737   -1157.1522    6465.0271    11592.523     1925.685 
   85700    301.61006    -1159.849    6398.2555    11681.843    1898.1466 
   85800    297.76366   -1165.2807    6418.0004    11613.983     1930.822 
   85900    300.16596   -1165.3233    6322.3395    11569.601    1905.9225 
   86000    299.32911   -1160.2364    6517.7201    11752.191    1872.1672 
   86100    299.42375   -1157.5719    6469.7851    11708.942    1837.6287 
   86200    300.18613   -1164.8851    6361.4625    11609.594    1914.3015 
   86300    299.67634   -1163.8097    6289.0092    11527.325     1803.107 
   86400    302.87064   -1159.3019    6568.0949     11879.16    1944.1811 
   86500     300.2696    -1154.891    6446.5257    11706.434    1936.1485 
   86600    302.64119   -1160.0217    6374.7621    11680.205    1900.4646 
   86700    297.78456   -1161.2114    6414.6673    11615.166     1845.446 
   86800    298.72888   -1164.6969    6359.1068    11576.294     1894.028 
   86900    303.09336    -1162.846    6410.9372    11723.216    1938.5691 
   87000    296.27658    -1153.204    6522.8138    11699.104    1938.7823 
   87100    298.07724   -1165.0896     6396.381    11599.254    1801.8195 
   87200    301.15119   -1164.3488    6495.3018    11764.586    1864.3195 
   87300    301.76192    -1166.092    6391.4989    11672.087    1793.7913 
   87400    301.19644   -1157.6413    6537.9114     11814.87    1934.0601 
   87500    298.89261    -1164.384    6450.6255    11671.623    1947.1787 
   87600    301.61698   -1159.5972    6439.8267    11723.814    1920.8061 
   87700    297.35311   -1163.1114    6337.8554    11527.237    1868.8042 
   87800    297.04966   -1162.3298    6495.2453    11678.926    1989.6543 
   87900    300.45766   -1162.6792    6373.7819     11629.92    1858.9127 
   88000    295.45681   -1160.6114    6339.8154    11491.185     1849.866 
   88100    294.87979   -1163.3736    6397.5366    11533.817    1864.2971 
   88200    308.63517   -1160.9648    6514.1064    11946.659    1923.2122 
   88300    299.09103   -1168.5964    6360.1298    11581.154    1830.5299 
   88400    298.41742   -1161.0791     6381.138    11595.289    1897.5885 
   88500    303.06068   -1162.1758    6419.3707    11731.621    1884.4066 
   88600    299.20758   -1159.7044    6525.9693    11758.376    1960.1119 
   88700    298.55438   -1160.8141    6441.7711    11659.113    1947.7196 
   88800    304.51272   -1163.7801    6287.9396    11629.607    1920.7777 
   88900    295.20749   -1162.1896    6491.1536    11635.619    1913.5422 
   89000     299.8735   -1154.4431    6431.5718    11683.466    1859.7281 
   89100    303.12481   -1158.2827    6491.7585    11809.272     1952.295 
   89200    298.78191   -1160.3013    6344.3431    11567.059    1861.0271 
   89300    301.19774    -1156.224    6472.3925    11750.796    1917.5691 
   89400    303.60734   -1157.1639    6469.4568    11798.398    1864.5382 
   89500    303.83027   -1154.5886    6433.6877    11769.967    1895.1712 
   89600    297.76456   -1156.3705    6415.8557    11620.768    1876.6813 
   89700    304.52987   -1154.7164      6412.24    11763.337    1882.9506 
   89800    297.53098   -1155.0996    6419.2425    11620.436    1856.4689 
   89900    304.63983   -1158.4327    6495.7337    11845.463    1897.2847 
   90000    298.61999   -1155.4615    6460.3854    11684.482     1871.631 
   90100     299.3454   -1151.4816     6290.687    11534.261     1763.374 
   90200    303.38561   -1150.7987    6464.7064    11795.276    1875.2798 
   90300    299.40831   -1154.8371    6532.6996    11774.261    1873.0131 
   90400    302.38606   -1152.2228    6351.8256    11659.617    1830.8437 
   90500    304.06408   -1154.3484    6409.4801    11750.994    1902.6722 
   90600    298.84623   -1160.4385    6466.7161    11690.669    1922.1711 
   90700    298.88945   -1163.5329    6413.0026    11634.784    1902.1383 
   90800    305.20861   -1162.5467     6354.499    11712.266    1846.0337 
   90900    299.62703   -1158.1346    6419.9846    11662.922    1825.2252 
   91000    303.76914    -1158.172    6535.4655    11866.855    1893.0016 
   91100    297.31931   -1159.9924    6409.8295    11601.608    1839.8427 
   91200    306.41937   -1162.4082    6328.7111    11712.483    1853.1765 
   91300    299.52317   -1167.9845    6341.3777    11572.246    1881.6534 
   91400    303.36426   -1158.8971    6492.9494    11814.964    1913.9289 
   91500    300.99503   -1160.3232    6472.7614    11742.735    1847.8936 
   91600    301.44557   -1165.2202     6432.061    11706.763    1927.8419 
   91700    301.18419   -1165.3199    6396.5478    11665.566    1945.8938 
   91800    298.31021   -1163.2433    6347.4435     11557.14    1865.6212 
   91900    299.78855   -1173.6776    6466.9993    11697.844     1934.749 
   92000    302.56325   -1167.5353    6391.9298    11688.194    1916.4268 
   92100    300.89032   -1167.1302    6489.6225    11750.552    1892.5659 
   92200    300.13154   -1172.0825    6397.6731     11637.44    1863.4058 
   92300    298.74297   -1168.3332    6415.5366    11629.389    1891.9879 
   92400    306.46255   -1159.8112    6376.0006    11763.292    1855.1907 
   92500      298.565   -1160.1583    6380.7948     11599.02    1846.2009 
   92600    302.02329   -1163.5031    6422.5934    11711.354    1905.5455 
   92700     303.6786   -1160.3535    6518.0654    11845.339    2002.2453 
   92800    293.09968   -1164.9592    6326.8444     11423.51    1852.7086 
   92900    300.49655   -1164.0474     6356.789    11612.389    1867.3299 
   93000    300.12504   -1162.7663    6422.5758    11671.521    1900.0074 
   93100    295.92555   -1160.0028    6510.7363    11672.729    1893.3289 
   93200    296.80652   -1158.1086    6571.3625     11754.07    1909.3524 
   93300    301.79466   -1160.6043    6280.1349     11566.91    1862.6396 
   93400     296.7329   -1157.5485    6368.5546    11550.249    1900.0212 
   93500    298.97819   -1153.1037    6381.5041    11615.611    1855.4974 
   93600    299.67149   -1158.6232    6452.4804    11695.879    1818.5312 
   93700    306.06038   -1159.3744    6419.6096    11798.746    1889.8762 
   93800    297.99557   -1152.9666    6434.6269    11647.878    1901.2236 
   93900      299.122    -1157.431    6435.9773    11668.829    1866.6275 
   94000    302.58677   -1160.5311    6421.1992     11724.97    1870.0923 
   94100    298.17951   -1160.0311    6444.9998    11655.117    1854.5876 
   94200    301.81558   -1157.3193    6378.4939    11669.001    1879.6713 
   94300    305.55971   -1157.9578    6514.5282    11884.385    1984.5111 
   94400    297.52954   -1162.8248    6423.2985    11616.736    1923.3942 
   94500    303.00216   -1159.3261    6424.3453    11738.195    1982.2409 
   94600     300.1649   -1154.9033    6379.4284    11637.088    1948.2173 
   94700    300.97975   -1160.6898    6447.0369    11716.318    1870.9268 
   94800    301.24008   -1163.1884    6579.1732    11851.517     1951.395 
   94900     301.8946   -1163.0951    6328.0568    11614.477    1865.4629 
   95000    299.32257   -1166.1336    6390.9622    11619.396     1911.455 
   95100    298.78278   -1164.0517    6467.3742    11686.358    1879.2039 
   95200    301.99663   -1164.1126    6409.1263    11696.708     1867.208 
   95300     293.1068   -1164.2396    6482.8616    11580.399    1892.7795 
   95400    303.52366   -1158.4013    6371.3907    11697.307    1844.5186 
   95500    298.96982   -1161.8073    6419.3784    11644.603    1914.2253 
   95600    306.04668   -1157.1466    6414.9095    11795.981    1946.6748 
   95700    292.08746   -1155.1095    6445.2734    11530.164    1881.8063 
   95800    301.43869   -1159.1391     6351.586    11632.222    1847.0826 
   95900    297.67529   -1159.9964    6535.3111     11734.69    2005.9938 
   96000    299.82698   -1164.8836    6428.9434    11669.403    1924.2773 
   96100    293.66018   -1165.0201    6391.9104     11500.49    1893.7461 
   96200    302.28679   -1162.7304    6468.0739    11763.237    1930.5508 
   96300    295.18811   -1158.7043    6458.8371    11606.374     1811.352 
   96400     300.6618   -1158.1716     6414.246    11679.252    1859.6107 
   96500    300.12978     -1158.48    6445.2202    11698.552    1892.6334 
   96600    301.81686    -1150.235    6440.0394    11737.658    1923.9757 
   96700      304.795   -1155.5875    6326.5488    11682.439    1866.0807 
   96800    297.49863   -1156.7304    6381.2934    11580.165    1885.3517 
   96900    296.31775   -1155.2549    6397.6216    11572.741    1853.5077 
   97000    302.08336   -1152.7801    6466.9731    11767.741    1811.5535 
   97100    298.52657   -1159.8748    6533.3454    11751.033    1896.5877 
   97200    300.04096   -1159.8928    6382.0234    11632.045    1932.8034 
   97300    294.32331   -1159.0497    6406.3532    11535.069    1901.8563 
   97400    300.67396   -1162.7871    6441.1185    11701.769     1955.355 
   97500    298.19237   -1157.3841    6404.5428    11617.581    1927.5804 
   97600    294.63498   -1153.6426    6485.3137    11626.095    1947.9209 
   97700     303.2948    -1152.264    6425.8704    11753.035    1885.3936 
   97800    302.90975   -1155.2631    6400.5522    11716.491    1921.0078 
   97900    301.14305   -1159.5531    6362.7786    11636.685    1937.6711 
   98000    300.56498   -1161.8746    6365.8883    11625.123     1824.521 
   98100    301.13309   -1161.7292    6538.0886    11809.606    1905.8939 
   98200    303.87492   -1162.6803    6480.9159    11810.057    1920.2583 
   98300    298.22863   -1164.4499    6337.2266    11543.974    1884.7213 
   98400    300.06101   -1161.7525    6506.0651    11754.656    1952.2612 
   98500    300.37256   -1164.6649    6425.5219    11677.856    1917.8629 
   98600    300.73948   -1161.4157    6309.1045    11572.526    1894.1366 
   98700    295.73332   -1154.2638    6405.0334    11568.658    1902.3719 
   98800    303.89936   -1160.6464    6403.5618    11735.259    1876.4735 
   98900    299.93257   -1160.3954    6447.4447    11694.648    1893.0925 
   99000    302.74394   -1166.1559    6399.2455    11700.749    1846.0629 
   99100    297.51598   -1168.4167    6482.9255    11670.481    1967.1996 
   99200    304.18783   -1169.5337    6373.0539    11702.027    1932.6874 
   99300    297.68786   -1165.8313    6380.7916    11574.605    1860.9059 
   99400    297.89921   -1165.9735    6421.0208    11619.207    1862.2214 
   99500    304.81226   -1165.1839    6474.5924    11821.255     1914.942 
   99600    301.07272   -1160.4844    6460.1335    11731.606    1914.9855 
   99700    306.26501   -1164.7053    6323.0187    11701.195    1851.7808 
   99800    298.99666   -1159.0579    6455.6177    11684.165     1933.445 
   99900    298.56742   -1162.1494    6447.8087    11664.094    1865.2915 
  100000    301.10652   -1163.0751    6375.9386    11645.542    1834.3717 
  100100    303.11966   -1162.4542    6475.2575     11788.49    1945.9495 
  100200    299.85817   -1159.7398    6564.2478    11810.518    1943.0162 
  100300     303.4286   -1160.3781    6449.5222    11771.431    1905.5014 
  100400    296.62636   -1164.8783    6266.5844    11438.673    1895.4834 
  100500    300.82683   -1162.7237    6366.2887    11630.269    1895.6737 
  100600    296.47908   -1153.6312    6577.8968    11758.086    1915.8851 
  100700    300.43313    -1158.043    6386.2124    11646.462    1882.1484 
  100800    302.16907   -1159.8397    6403.6534    11699.192    1968.1824 
  100900    300.99049   -1153.9444    6414.2116    11690.467    1857.8576 
  101000    300.74391    -1156.457    6424.8573    11693.332    1883.5082 
  101100    299.43712   -1164.3156    6435.3088    11668.008    1884.8269 
  101200     300.7196   -1157.7112    6472.1574    11738.859    1878.9219 
  101300     301.9515   -1162.5371    6340.4398    11628.633    1871.0639 
  101400     299.6935    -1162.015     6403.156    11643.633    1965.4682 
  101500    304.25226   -1163.5468    6518.3445     11854.68    1961.0946 
  101600    299.28288   -1156.7383    6405.6501    11642.631    1875.9651 
  101700     303.5299   -1151.5732    6393.6555    11726.533    1919.0554 
  101800    301.49269   -1156.6636    6607.3181    11891.583    1981.8435 
  101900    298.27904   -1161.3836    6315.3427    11526.233    1798.3187 
  102000    298.66745   -1162.4876    6309.2697    11527.354    1859.9973 
  102100    300.97985   -1163.5188     6487.579    11754.033    1922.9414 
  102200    299.36764   -1161.9102    6373.9912    11607.611    1877.6829 
  102300    297.21188   -1159.5657    6379.0836    11568.994    1866.0212 
  102400    304.33878    -1164.643    6530.6092    11867.697    1962.2301 
  102500    297.96829   -1160.2402     6465.798    11671.193    1897.3647 
  102600    302.47002   -1164.9066    6368.3952    11665.296    1935.5953 
  102700     297.5993   -1160.2261    6428.6378    11626.164    1977.1651 
  102800    298.31638   -1155.3372    6475.6349    11693.369      1949.29 
  102900    300.25431   -1157.0449    6518.8388    11776.267    1914.2589 
  103000    297.10685   -1153.4562    6445.5639     11639.34    1905.9779 
[...]
  588400    297.54043   -1157.3694    6512.9758    11712.101    1961.9767 
  588500    303.37552   -1158.6432    6389.5912      11712.1    1896.4912 
  588600    299.45115   -1152.3699     6467.069    11712.013    1858.6649 
  588700    300.57701   -1161.4652    6452.1633    11712.065    1876.6371 
  588800    298.03801   -1152.7101    6497.7242    11712.139     1918.191 
  588900    302.05399   -1153.9434    6413.1565    11712.133    1847.3893 
  589000    303.05605   -1159.9922    6397.7907    11712.126     1879.717 
  589100    299.32888   -1154.7689    6472.1985    11712.132    1993.9708 
  589200    302.65536   -1159.4968    6405.8657    11712.136    1896.0334 
  589300    299.95983   -1157.4724    6461.4462    11712.155    1919.8269 
  589400    302.77274   -1161.5362    6405.5615      11712.3    1943.0469 
  589500     301.8928   -1163.2777    6426.1808    11712.379    1905.2116 
  589600    303.65036   -1164.1683    6389.4628    11712.318    1918.0586 
  589700    301.85837    -1165.471    6429.0182    11712.288    2016.3661 
  589800    299.58551   -1164.2243    6476.4464    11712.407    1968.1203 
  589900    299.81395   -1168.4354    6475.7628    11712.393    1881.6509 
  590000    302.62635   -1162.5064    6409.8032    11712.444    1902.8888 
  590100    301.74028   -1162.5571     6428.801    11712.462    1928.5351 
  590200    300.40089   -1166.0317    6460.9168    11712.489    1939.0881 
  590300    303.81855   -1173.2946    6395.1345    11712.457    1927.4862 
  590400    300.02717   -1165.3233    6468.0545    11712.351      1880.37 
  590500    302.59534    -1162.949     6410.765    11712.301     1859.835 
  590600    299.55151   -1167.4907    6480.4605    11712.428    1981.7004 
  590700    302.28347   -1159.7887    6414.2757    11712.309    1968.8319 
  590800    301.40427    -1161.204    6434.5257    11712.361    1956.9915 
  590900    302.57276   -1161.4386    6409.6986    11712.263    1909.7443 
  591000    300.70728   -1158.9281    6447.0459    11712.267    1961.9377 
  591100    300.74514   -1159.4159    6446.5979     11712.14    1919.5076 
  591200    300.84406   -1157.1825    6442.2732    11712.162    1901.7823 
  591300     299.6259    -1158.152    6469.2743     11712.17    1912.7761 
  591400    300.55001   -1159.8493    6451.0403    11711.981    1878.1853 
  591500    299.37146   -1156.4407    6472.8834    11712.055    1874.6467 
  591600    301.17972   -1157.2817    6435.1028    11712.064    1935.2689 
  591700     302.8995    -1154.578    6395.5958    11712.001    1916.8486 
  591800    297.96147   -1152.9848    6499.5225    11712.027    1913.5516 
  591900    299.38123    -1152.932    6469.0799    11711.969    1928.4594 
  592000    302.13422   -1155.4703    6412.9195    11712.083    1986.6364 
  592100    300.98212    -1146.548     6428.546    11712.019    1992.5272 
  592200    303.99329   -1154.9922    6372.6901    11712.048     1939.435 
  592300    300.60546   -1154.4322    6444.5843    11712.126    1909.2042 
  592400     298.4313   -1163.2801    6499.9539    11712.201    1931.3677 
  592500      297.927   -1165.3928     6512.868    11712.228    1905.5383 
  592600    307.15438   -1163.3891    6313.8425    11712.335    1877.6131 
  592700    300.19509   -1160.0788    6459.2619    11712.391    1932.8972 
  592800    301.82453   -1166.5234    6430.8389    11712.333    1890.7146 
  592900    300.84397   -1165.5464    6450.8382    11712.362    1890.0896 
  593000    300.02523   -1162.0296    6464.8686    11712.418    2010.6941 
  593100    302.83506   -1162.8318    6405.6344    11712.409    1927.7544 
  593200      302.144    -1164.517    6422.0623    11712.388    1882.2433 
  593300    299.18316   -1163.5682    6484.3781    11712.399    1973.9216 
  593400    300.57588   -1170.3312    6461.4925    11712.504    1918.7618 
  593500    302.64599   -1173.1581    6420.2179    11712.627    1923.3654 
  593600    297.64985   -1167.1208     6520.857    11712.569    1950.7849 
  593700    301.45369   -1173.0049    6445.4158    11712.506    1928.0829 
  593800    300.30387   -1159.8649    6456.8101    11712.477    1936.5678 
  593900    298.68281   -1160.5867    6492.1511    11712.464     1975.348 
  594000    302.08276   -1163.8685    6422.7104    11712.377    1899.1924 
  594100    300.87139   -1160.7434     6445.364    11712.276     1908.726 
  594200    299.47247   -1162.7562    6477.2761     11712.29    1919.6841 
  594300    302.88259   -1165.4933    6407.1909    11712.319    1897.4625 
  594400    301.24175   -1159.1404    6435.7788    11712.206     1895.973 
  594500    301.75911   -1157.5089    6423.0639    11712.175    1848.5707 
  594600    301.34888   -1162.5828    6436.8973    11712.171    1871.8549 
  594700    297.79906   -1151.8027    6501.8174    11712.035     1905.283 
  594800    301.09123   -1149.1584    6428.7221    11711.916    1963.3668 
  594900    302.97501    -1143.904    6383.1956    11711.888    1956.0589 
  595000    298.74831   -1144.8514    6474.4751    11711.923    1948.3272 
  595100      300.154   -1149.6707    6449.2641    11711.923    1937.9528 
  595200    301.86009   -1150.5418    6413.6903    11711.926    1938.2323 
  595300    303.63303   -1149.6908    6374.9928    11711.956    1870.5437 
  595400    297.64484   -1155.2631    6508.5818    11712.044    1911.4604 
  595500    300.05802   -1157.2277    6459.0035    11712.055    1856.2403 
  595600    302.16839   -1153.2341    6409.9196     11712.05    1910.8388 
  595700    302.29949   -1152.7586     6406.611    11712.017    1917.5099 
  595800    300.42744   -1149.5442    6443.5341    11712.161    1914.2944 
  595900    300.88263   -1154.2774    6438.4533    11712.072    1877.0534 
  596000    295.68924   -1149.3341    6544.5166    11712.129    1932.1886 
  596100    303.37915   -1155.1196    6386.0434    11712.154    1909.0787 
  596200    299.76571   -1159.2514    6467.4152    11712.198     2041.026 
  596300    300.21938   -1165.7965     6464.261    11712.191    1950.4429 
  596400    299.16333   -1161.8238     6483.004    11712.346    1862.4686 
  596500    300.65671   -1170.8885    6460.2237    11712.405    1853.0015 
  596600    299.16036   -1172.0024      6493.29     11712.39    1857.2938 
  596700    301.32182    -1165.512    6440.6347    11712.401    1915.3257 
  596800    302.38145   -1167.6002    6420.1337    11712.449    1931.6979 
  596900    300.04723   -1166.9837    6469.3676    11712.432    1897.1234 
  597000    301.11703    -1159.636    6439.0702    11712.337    1877.7678 
  597100    305.58416   -1166.5225    6350.5485    11712.363    1934.2529 
  597200     298.7999   -1164.5799     6493.652    11712.473    1956.4252 
  597300    302.05973   -1162.6065    6422.0064    11712.442    1860.8872 
  597400    299.86933     -1172.91    6479.1537    11712.492    1882.5549 
  597500    297.53367   -1170.2338    6526.3735     11712.49    1893.9402 
  597600    308.05419   -1169.9108    6301.2381    11712.432    1801.8017 
  597700    300.25061    -1162.204    6460.1936    11712.383    1914.8958 
  597800      302.236   -1158.7402    6414.2178    11712.286    1919.5337 
  597900    303.17008   -1158.6447     6394.111     11712.23    1894.9308 
  598000     301.9499   -1155.6903    6417.1846    11712.191    1912.7563 
  598100    299.69747   -1154.7667    6464.3858    11712.196    1985.0295 
  598200    299.68421   -1150.8616    6460.6529    11712.085    1946.1457 
  598300     301.7245   -1152.2268    6418.4007    11712.055    1928.1199 
  598400    302.71645   -1152.0922    6397.0337    11712.014    1936.5093 
  598500    298.69705   -1152.8567    6483.5603    11711.908    1931.1749 
  598600    301.58132   -1155.5823    6424.7142    11711.954    1848.8181 
  598700    296.70412   -1155.2287    6528.5894    11711.989    1885.2023 
  598800    304.43539   -1154.2117    6362.3494    11711.933     1830.571 
  598900    301.36729   -1149.3245    6423.0008    11711.926    1834.4264 
  599000    297.99115   -1147.5825    6493.2569    11711.798    1801.3325 
  599100    302.91814   -1148.4317     6388.869    11711.818    1834.4133 
  599200    302.38622   -1142.0445    6393.8907    11711.864    1910.2891 
  599300    300.24668   -1152.6445    6450.2373    11711.902    1899.1735 
  599400    300.27701   -1154.1617    6451.0978    11711.894    1884.9854 
  599500    299.48413   -1156.3229    6470.3155    11712.012    1990.3084 
  599600    298.50101    -1157.363    6492.3612    11712.014    1903.0025 
  599700    301.98718   -1162.3727    6422.9032    11712.023    1751.6291 
  599800      300.763   -1154.6337    6441.3019    11712.008    1873.0459 
  599900    301.46466   -1157.8217     6429.468    11711.976    1933.8536 
  600000    299.99904   -1161.9037    6464.9022    11712.018    1958.6143 
Loop time of 283.108 on 8 procs for 300000 steps with 7168 atoms

Pair  time (%) = 137.378 (48.5248)
Bond  time (%) = 81.1522 (28.6647)
Neigh time (%) = 19.6129 (6.92772)
Comm  time (%) = 34.5012 (12.1866)
Outpt time (%) = 0.490545 (0.173271)
Other time (%) = 9.97352 (3.52287)

Nlocal:    896 ave 902 max 890 min
Histogram: 1 0 1 1 2 0 0 1 1 1
Nghost:    2851 ave 2860 max 2847 min
Histogram: 3 0 1 2 0 1 0 0 0 1
Neighs:    23591 ave 24058 max 23324 min
Histogram: 1 3 1 0 0 1 1 0 0 1

Total # of neighbors = 188728
Ave neighs/atom = 26.3292
Ave special neighs/atom = 157.056
Neighbor list builds = 3043
Dangerous builds = 0
# −−−−−−−−−−−−−− Flux calculation in nve −−−−−−−−−−−−−−−
reset_timestep  0
compute         PE all pe/atom
compute         KE all ke/atom

variable        CX atom (vx*(c_KE+c_PE))
compute         Jcx all reduce sum v_CX

variable        CZ atom (vz*(c_KE+c_PE))
compute         Jcz all reduce sum v_CZ

variable        CY atom (vy*(c_KE+c_PE))
compute         Jcy all reduce sum v_CY

compute         SA all stress/atom virial

variable        VX atom -(c_SA[1]*vx+c_SA[4]*vy+c_SA[5]*vz)*1.4593e-5
compute         Jvx all reduce sum v_VX

variable        VZ atom -(c_SA[3]*vz+c_SA[6]*vy+c_SA[5]*vx)*1.4593e-5
compute         Jvz all reduce sum v_VZ

variable        VY atom -(c_SA[2]*vy+c_SA[6]*vz+c_SA[4]*vx)*1.4593e-5
compute         Jvy all reduce sum v_VY

variable        Jx equal (c_Jcx+c_Jvx)/vol
variable        Jz equal (c_Jcz+c_Jvz)/vol
variable        Jy equal (c_Jcy+c_Jvy)/vol

fix             JJTx all ave/correlate $s $p $d                 v_Jx type auto file J0Jt_tx.dat ave running
fix             JJTx all ave/correlate 5 $p $d                 v_Jx type auto file J0Jt_tx.dat ave running
fix             JJTx all ave/correlate 5 20000 $d                 v_Jx type auto file J0Jt_tx.dat ave running
fix             JJTx all ave/correlate 5 20000 100000                 v_Jx type auto file J0Jt_tx.dat ave running

fix             JJTz all ave/correlate $s $p $d                 v_Jz type auto file J0Jt_tz.dat ave running
fix             JJTz all ave/correlate 5 $p $d                 v_Jz type auto file J0Jt_tz.dat ave running
fix             JJTz all ave/correlate 5 20000 $d                 v_Jz type auto file J0Jt_tz.dat ave running
fix             JJTz all ave/correlate 5 20000 100000                 v_Jz type auto file J0Jt_tz.dat ave running

fix             JJTy all ave/correlate $s $p $d                 v_Jy type auto file J0Jt_ty.dat ave running
fix             JJTy all ave/correlate 5 $p $d                 v_Jy type auto file J0Jt_ty.dat ave running
fix             JJTy all ave/correlate 5 20000 $d                 v_Jy type auto file J0Jt_ty.dat ave running
fix             JJTy all ave/correlate 5 20000 100000                 v_Jy type auto file J0Jt_ty.dat ave running

run             1000000
Memory usage per processor = 13.8919 Mbytes
Step Temp E_pair E_mol TotEng Press 
       0    299.99904   -1161.9037    6464.9022    11712.018    1958.6143 
     100    301.96103   -1159.6122    6420.7154    11712.037     1943.044 
     200    302.90145   -1159.2235    6400.2311    11712.032     1901.962 
     300    302.75691   -1153.1973    6397.3535    11712.093    1877.2817 
     400    299.20844   -1159.8851    6479.9732    11712.217    1942.5709 
     500    301.93946   -1162.7194    6424.4721    11712.226    1933.5645 
     600     301.6779   -1167.0579    6434.4438    11712.271    1899.5639 
     700    297.12713   -1167.5668    6532.1412     11712.24    1938.5499 
     800    301.86591   -1166.3355    6429.7778    11712.344    1894.2859 
     900    299.64096   -1163.6534    6474.5058    11712.222    1868.5843 
    1000    303.29321   -1156.6803     6389.487    11712.201     1928.188 
    1100    299.86349   -1161.5349    6467.5722    11712.161    2000.8729 
    1200    302.23544   -1153.8599    6409.2364    11712.173    1921.6176 
    1300    303.39301   -1154.5534    6385.1366    11712.109    1963.0145 
    1400    301.31059   -1155.0531    6430.1366    11712.122    1915.1637 
    1500     299.4453   -1157.3502    6472.3077    11712.147     1948.841 
    1600    302.77001   -1161.0176    6404.9994    11712.199    1903.0316 
    1700    298.84096   -1161.4475    6489.3034    11712.134    1898.6094 
    1800    304.70158   -1155.0291    6357.6532    11712.106     1835.655 
    1900     297.9261   -1154.1143    6501.5272    11712.147    1907.9425 
    2000    302.66113   -1155.2113     6401.345    11712.024    1879.7762 
    2100    300.06949   -1152.9925    6454.4425    11711.974    1881.4992 
    2200    303.26147   -1153.2446    6386.5979    11712.069     1895.951 
    2300    299.41207   -1152.1016    6467.7145    11712.092    1920.5357 
    2400    302.18109   -1151.8969    6408.3686    11712.107    1846.5221 
    2500    300.81913   -1159.5793    6445.1686    11712.128    1918.6806 
    2600    299.48617   -1159.8663    6473.9944    11712.191    1955.7666 
    2700    303.27732   -1160.8824    6394.0545    11712.227    1875.2215 
    2800    299.33922   -1163.5667    6480.9135     11712.27    1914.4397 
    2900    300.49581   -1159.2369    6451.8919    11712.287    1898.7683 
    3000    300.62869   -1161.7391      6451.56    11712.292    1933.4461 
    3100    300.44757    -1161.966    6455.6622    11712.298    1879.1994 
    3200    301.42119   -1154.7165    6427.6639    11712.349    1882.7042 
    3300    301.06401   -1158.0649    6438.6899    11712.396     1917.958 
    3400    304.09306   -1163.6523    6379.5507     11712.38    1860.6539 
    3500    298.67394   -1165.5729    6497.2235    11712.361    1939.6892 
    3600    301.15753   -1160.8344    6439.4043    11712.339    1889.6004 
    3700    303.45669   -1168.4619     6397.908    11712.333    1859.6271 
    3800    301.74689   -1169.7661    6435.7638    11712.357    1948.1455 
    3900    300.72827   -1174.0802    6461.8352    11712.353    1985.6805 
    4000    299.04455    -1171.219    6494.8959    11712.305    1941.4653 
    4100    300.74898   -1164.7573    6452.0568     11712.34    1928.3586 
    4200    300.70103    -1158.319    6446.6239    11712.321    1990.3976 
    4300    299.98147    -1163.202    6466.8211    11712.263    1886.3039 
    4400    298.63812   -1161.4764    6493.7705    11712.239    1942.5979 
    4500    304.24881   -1161.5863    6373.9802    11712.203    1958.5418 
    4600    299.99946   -1159.0672    6462.2663    11712.227    1948.7971 
    4700    299.95507   -1156.2593    6460.2842    11712.105    1916.7212 
    4800    302.68175   -1154.4621    6400.2543    11712.123    1904.6101 
    4900    298.53646   -1158.6856    6493.1604    11712.248    1993.5075 
    5000    301.82906    -1153.615    6417.5692    11712.069    1866.7578 
    5100     302.1997   -1155.0871    6411.1065    11712.052    1883.2887 
    5200    301.27835    -1159.501    6435.2298    11712.079    1915.2949 
    5300    299.21073   -1152.4792    6472.3534    11712.052    1956.0247 
    5400    300.31627    -1154.655     6450.953    11712.094    1990.5619 
    5500    299.90523   -1151.0916    6456.1287    11712.052    1992.4496 
    5600    299.02786   -1156.6261    6480.4538    11712.099     1873.896 
    5700    300.39379   -1153.3113    6447.9038    11712.045    1875.2436 
    5800    304.38739   -1160.8811    6370.1798    11712.068    1971.4555 
    5900      303.428   -1155.2686    6385.1185    11712.124    1985.0224 
    6000    298.14971   -1157.0372    6499.6573    11712.131    1872.0535 
    6100    302.66045   -1158.1823    6404.5013    11712.195    1928.7722 
    6200    302.64034   -1164.2436     6411.014    11712.217    1880.7837 
    6300    301.65609   -1168.0009    6435.8098    11712.228     1865.187 
    6400    303.19175   -1159.3517    6394.4124    11712.287    1896.4518 
    6500    302.48563   -1165.8273    6416.0194    11712.333    1892.1809 
    6600    301.22064   -1161.6432    6438.8097    11712.283    1846.8683 
    6700    301.23996   -1163.3098     6440.088    11712.308    1877.4443 
    6800    297.41868    -1162.393    6520.7976    11712.298    1997.8311 
    6900    300.90627   -1162.8643    6446.7436     11712.28    1971.0345 
    7000    298.14948   -1158.0561    6500.8477    11712.298    1982.0897 
    7100    304.15384   -1159.8645    6374.3258    11712.242    1899.0452 
    7200    302.50983   -1162.9016    6412.4592    11712.216    1885.1497 
    7300    302.01908   -1165.7836    6425.7616    11712.152     1888.367 
    7400    302.12624   -1163.5254    6421.2258    11712.164    1961.3768 
    7500     301.0124   -1163.8315     6445.354    11712.191    1964.4935 
    7600    301.15369   -1162.0767    6440.4716    11712.081    1928.5442 
    7700    298.46408   -1159.9112    6495.7314    11712.047    1910.2121 
    7800    299.47924   -1163.2375    6477.3354    11712.012    1996.8637 
    7900    301.63058   -1153.2384    6421.3773    11712.014    1953.5881 
    8000    300.33398   -1153.8213    6449.5991    11711.953    1916.6281 
    8100     301.5922   -1154.5507    6423.3805    11711.884    1977.8331 
    8200    302.79112   -1154.5073    6397.7544    11711.915    1941.8945 
    8300    301.12083   -1152.6004    6431.5708    11711.955    1912.2955 
    8400    300.62486   -1151.8946    6441.5412    11712.035    1911.8512 
    8500    302.83638   -1154.3983    6396.7374    11711.974    1944.3838 
    8600     298.0206   -1152.8511     6498.126    11712.028    1962.8609 
    8700    302.85539   -1156.5283     6398.429    11711.941    1915.0414 
    8800    298.32248   -1160.9938    6499.7267    11711.935    1945.7686 
    8900    304.33834   -1159.1673    6369.4073    11711.962     1873.184 
    9000    299.20671    -1159.608    6479.5399    11712.024     1935.949 
    9100    298.46646   -1157.5973    6493.3604    11712.041    1899.5491 
    9200    302.23757   -1159.3585    6414.5941    11712.077    1868.6048 
    9300    300.57228   -1162.5569    6453.4719     11712.18    1974.9512 
    9400    299.33393   -1163.9869    6481.4163     11712.24    1988.9017 
    9500    301.01149   -1169.6079    6451.2669    11712.308    1915.8666 
    9600    300.68294   -1170.5175    6459.2113    11712.323    1840.0549 
    9700    303.36324   -1164.4988    6395.9824    11712.374    1882.0137 
    9800     301.5565   -1167.1789    6437.2081    11712.321    1905.3728 
    9900    301.58737   -1160.9801    6430.4167    11712.388    1935.6413 
   10000    301.33871   -1161.4573    6436.3318    11712.514    2001.9521 
Loop time of 1429.97 on 8 procs for 1000000 steps with 7168 atoms

Pair  time (%) = 564.034 (39.4438)
Bond  time (%) = 297.44 (20.8005)
Neigh time (%) = 65.6973 (4.59432)
Comm  time (%) = 122.307 (8.5531)
Outpt time (%) = 0.00396517 (0.000277291)
Other time (%) = 380.485 (26.608)

Nlocal:    896 ave 905 max 890 min
Histogram: 1 0 2 1 2 0 1 0 0 1
Nghost:    2842.38 ave 2849 max 2838 min
Histogram: 2 0 1 3 0 0 0 1 0 1
Neighs:    23635.4 ave 24268 max 23259 min
Histogram: 2 2 0 0 1 1 1 0 0 1

Total # of neighbors = 189083
Ave neighs/atom = 26.3788
Ave special neighs/atom = 157.056
Neighbor list builds = 10167
Dangerous builds = 0
