LAMMPS (11 Jun 2012)
# Initialization
atom_style      full
units           real
variable        T equal 300
variable        dt equal 1.0
variable        seed equal 123460
variable        radius equal 0.5
variable        sizet equal 4
variable        sizeb equal -4
variable        p equal 20000    # correlation length
variable        s equal 5        # sample interval
variable        d equal $p*$s    # dump interval
variable        d equal 20000*$s    variable        d equal 20000*5    
# convert from LAMMPS real units to SI
variable        kB equal 1.3806504e-23    # [J/K] Boltzmann
variable        kCal2J equal 4186.0/6.02214e23
variable        A2m equal 1.0e-10
variable        fs2s equal 1.0e-15
variable        convert equal ${kCal2J}*${kCal2J}/${fs2s}/${A2m}
variable        convert equal 6.9510174124148567155e-21*${kCal2J}/${fs2s}/${A2m}
variable        convert equal 6.9510174124148567155e-21*6.9510174124148567155e-21/${fs2s}/${A2m}
variable        convert equal 6.9510174124148567155e-21*6.9510174124148567155e-21/1.0000000000000000777e-15/${A2m}
variable        convert equal 6.9510174124148567155e-21*6.9510174124148567155e-21/1.0000000000000000777e-15/1.0000000000000000364e-10
variable        b_eq equal 10.0/3.0

# setup problem
dimension       3
boundary        p p p
neighbor        2    bin
pair_style      lj/cut 10.0
bond_style      morse
read_data       lammps.data
  9 = max bonds/atom
  orthogonal box = (0 0 0) to (80 80 80)
  2 by 2 by 2 MPI processor grid
  7168 atoms
  33696 bonds
  10 = max # of 1-2 neighbors
  86 = max # of 1-3 neighbors
  824 = max # of 1-4 neighbors
  164 = max # of special neighbors
pair_coeff      1 1 0.000 3.500
pair_coeff      2 2 0.000 3.500
pair_coeff      1 2 0.105 3.500
bond_coeff      1 10 1.8 ${b_eq}
bond_coeff      1 10 1.8 3.3333333333333334814
bond_coeff      2 5 0.805 7.4536
bond_coeff      3 10 1.8 ${b_eq}
bond_coeff      3 10 1.8 3.3333333333333334814
bond_coeff      4 5 0.805 7.4536
velocity        all create $T ${seed} mom yes rot yes dist gaussian
velocity        all create 300 ${seed} mom yes rot yes dist gaussian
velocity        all create 300 123460 mom yes rot yes dist gaussian
timestep        ${dt}
timestep        1
thermo          100
dump            T1 all cfg 600000 *.cfg id type xs ys zs
dump            T2 all xyz 10000 traj.xyz
#dump_modify    1 element Cu
# −−−−−−−−−−−−− Equilibration and thermalisation −−−−−−−−−−−−−−−−
fix             NVT all nvt temp $T $T 10
fix             NVT all nvt temp 300 $T 10
fix             NVT all nvt temp 300 300 10
run             300000
Memory usage per processor = 11.5453 Mbytes
Step Temp E_pair E_mol TotEng Press 
       0          300   -906.89526 0.00012694983    5502.1446    343.62551 
     100    243.07525    -934.5925    7066.7586    11325.096    2173.3738 
     200    291.48944   -993.09112    10016.751    15250.884    1251.5064 
     300    301.43187   -990.91965    8288.5986    13737.308     562.3133 
     400    298.59716   -970.34039    6382.4928    11791.223    877.81814 
     500    301.10822   -955.16705    5755.8625    11233.411    1337.1395 
     600    299.90747   -952.44741    5730.8682    11185.484     1255.779 
     700    297.84902   -964.21054    6494.4319    11893.309    1123.6383 
     800     303.4055   -976.17575    7092.8976    12598.515    1130.7377 
     900    297.27696   -979.87079     7063.433    12434.428    1106.4685 
    1000    300.80201   -977.09828     6663.047    12112.122    1189.1159 
    1100    297.37431   -974.95449    6345.1045    11723.096    1227.6736 
    1200    303.33978   -974.89346    6156.6351    11662.131    1260.9308 
    1300    301.54754   -978.84753    6284.0913    11747.344    1156.1716 
    1400    300.89311   -988.62838    6679.7536    12119.245    1201.8766 
    1500     303.2019   -995.26816    6972.4834    12454.659    1317.2301 
    1600    299.46318   -996.09803    6741.8212    12143.295    1217.9793 
    1700    297.17539   -999.08123    6317.9465    11667.561    1176.0271 
    1800      301.207   -1003.2227     6438.149    11869.752    1424.9567 
    1900    299.32863   -1006.7101    6587.9252    11975.912    1430.3467 
    2000    300.68766   -1012.2676    6524.9253    11936.388      1307.52 
    2100    299.36861   -1019.0534    6531.1131    11907.611    1372.5557 
    2200    299.46875    -1027.284    6381.3234     11751.73    1371.0037 
    2300     302.3003   -1037.6497    6313.2379     11733.77    1362.2577 
    2400     298.3764   -1048.8928    6499.4129    11824.874    1404.3772 
    2500    306.92978   -1063.7854    6560.3955    12053.694    1351.7827 
    2600    299.75937   -1076.0721    6491.7295    11819.556    1421.9616 
    2700    298.96808   -1086.6635    6362.3315    11662.662    1440.1673 
    2800    297.43427   -1096.0844     6521.665    11779.807    1516.0305 
    2900    300.70586   -1107.5224    6237.6584    11554.255    1489.7681 
    3000    296.91831   -1105.1712    6096.6734    11334.706    1512.8085 
    3100    303.85783   -1102.4594    6340.1335     11729.13    1578.2614 
    3200    297.65424   -1099.0087    6410.7755    11670.693    1619.2473 
    3300    301.56851   -1080.9002    6159.9571    11521.605    1708.3571 
    3400    295.90841   -1057.9311    6107.0136    11370.712    1681.4178 
    3500    303.55152   -1067.8456    6347.8312    11764.898     1629.164 
    3600    298.86649   -1092.4385    6636.1629    11928.548    1700.1564 
    3700    302.03069   -1100.2447    6312.2101    11664.388    1693.4284 
    3800     305.0178   -1112.0747    6110.0265    11514.189    1728.7324 
    3900    296.79821   -1120.1487    6118.2353    11338.725    1673.7729 
    4000    301.32414   -1115.7723    6342.1791    11663.735     1653.876 
    4100    298.55217   -1110.5017    6522.2087    11789.816    1631.9603 
    4200    296.22167   -1107.0026    6361.0302    11582.349    1664.1193 
    4300    296.18104   -1098.6179    6411.2179    11640.053    1719.0721 
    4400    300.40059   -1095.2896    6365.6516     11687.96    1642.1925 
    4500    299.07729   -1084.7362    6239.3858    11543.977      1576.94 
    4600    300.63207   -1082.1569    6384.6649    11725.051    1558.2267 
    4700    299.20979   -1079.2982    6630.5914    11943.451    1520.7108 
    4800    303.14774   -1077.5951    6592.8581    11991.549    1504.6085 
    4900    300.72303   -1076.6938    6458.5551    11806.348    1530.9954 
    5000    301.99735   -1079.1259    6233.0295    11605.614    1519.0883 
    5100    298.01632   -1083.4288     6220.689    11503.922    1535.3243 
    5200    302.17038   -1089.9239    6591.4098    11956.892     1690.923 
    5300    295.44403   -1097.1916    6566.2292    11780.746    1585.2846 
    5400    299.73329   -1105.8855    6481.8523    11779.309    1558.8132 
    5500    299.88129    -1108.163    6345.6476    11643.988    1645.7837 
    5600    297.46454   -1111.2952     6345.691    11589.269    1638.0803 
    5700    299.73127    -1118.781    6338.6772    11623.195    1639.6229 
    5800    302.98668   -1120.7271    6264.0479    11616.166    1672.4199 
    5900     298.0396   -1124.5598    6384.7347    11627.334    1618.8981 
    6000    301.39484   -1124.7501     6509.855    11823.943    1759.1254 
    6100    297.62689   -1122.9629    6320.2421    11555.621    1767.9635 
    6200    302.09154   -1119.4456    6162.9463    11497.223    1711.7054 
    6300     299.3753   -1119.0654    6268.2031    11544.832      1775.68 
    6400    299.28578   -1119.2935    6403.7926    11678.281     1866.316 
    6500    302.90647   -1116.1786    6319.1739    11674.127    1769.7225 
    6600    296.69381   -1126.7155    6394.1769     11605.87    1788.8172 
    6700    300.22549   -1139.6232    6414.1918    11688.426    1778.2905 
    6800    299.50055   -1138.8931    6398.2329     11657.71    1747.8314 
    6900    304.50919    -1147.532    6277.9479    11635.787      1753.93 
    7000    294.50741   -1135.2548    6290.8339    11447.278    1789.1793 
    7100    300.22824   -1133.7833    6369.6097    11649.742    1782.1016 
    7200    302.30919   -1118.8216    6408.1868    11747.737    1704.0772 
    7300    297.20396   -1129.7614    6324.6969    11544.242    1708.7263 
    7400    299.78668   -1127.2052    6256.5666    11533.844    1733.4091 
    7500    301.44694   -1127.9895    6494.3868    11806.349     1778.914 
    7600    299.50282    -1124.533    6413.6156    11687.501    1782.1975 
    7700    303.59266   -1126.3898    6367.1174    11726.519    1781.0479 
    7800    301.47315   -1121.0519    6457.1849    11776.644    1741.8532 
    7900    298.44059    -1122.325    6429.2934    11682.694     1804.198 
    8000    298.69453   -1126.4227    6239.8605    11494.588     1785.094 
    8100    294.19605   -1125.6463    6410.0197    11569.421    1756.4132 
    8200    302.10631   -1123.4466      6348.36    11678.951    1788.9098 
    8300     303.1261   -1126.9977    6223.3735      11572.2    1794.6787 
    8400     295.6994   -1129.2298    6256.7621    11444.696    1775.5635 
    8500    299.41485   -1134.0884    6512.4641    11774.915    1780.0306 
    8600    302.27363   -1134.4789    6388.7133    11711.847    1731.7817 
    8700    296.71149   -1142.9751    6306.0344    11501.845    1775.1222 
    8800    301.96713   -1141.2544    6373.2702     11683.08    1767.4802 
    8900    297.73054   -1141.3139    6422.8503    11642.093    1722.1149 
    9000    301.65073   -1140.7038    6523.8109    11827.412    1784.1121 
    9100    300.26105   -1147.9011    6307.5269    11574.242    1708.0857 
    9200     298.8391   -1145.6292    6174.6984    11413.308    1656.9622 
    9300    299.24802   -1157.1455    6266.2167    11502.046    1740.1251 
    9400    303.47571   -1155.9444    6385.3524    11712.701    1809.0454 
    9500    299.35587   -1153.4843     6285.996    11527.791     1708.072 
    9600    299.33655   -1153.6948    6387.4457    11628.617    1800.0267 
    9700    298.26687   -1149.7695    6333.8472    11556.092     1729.514 
    9800    300.56459   -1137.3697    6340.3354    11624.067     1725.878 
    9900    300.52189   -1137.2313    6343.5458    11626.504    1849.9956 
   10000    299.36599   -1132.8322    6328.1061    11590.769    1790.1692 
   10100    299.36392    -1131.707    6451.7513    11715.495    1737.6302 
   10200    299.98514   -1131.5605    6318.0188    11595.181    1713.0889 
   10300    300.09226   -1134.9413    6369.5931    11645.662    1783.8627 
   10400    298.13102   -1143.5852    6319.8576    11545.384    1723.0329 
   10500    298.44506   -1138.3988    6428.4611    11665.883    1801.6823 
   10600    299.42253   -1134.3961    6364.2859    11626.593    1822.1042 
   10700    300.81854   -1134.8367    6376.9597    11668.649    1767.2408 
   10800    298.58707   -1130.9363    6399.0601    11646.978    1726.6745 
   10900    294.71377   -1124.7731    6458.9692    11630.304    1789.8527 
   11000    304.73885   -1126.1001     6350.833    11735.011    1756.2601 
   11100    298.13917   -1128.8582    6396.5711    11636.999    1746.3996 
   11200    299.95685   -1125.0397     6437.946    11721.024    1788.3956 
   11300    302.21027   -1121.5767    6310.4402    11645.122     1686.804 
   11400    301.25628   -1127.3194    6468.2583    11776.817    1759.2702 
   11500    302.86194   -1127.8854    6506.3967    11848.692    1743.3763 
   11600    299.58316   -1130.7254    6361.1157    11630.525    1747.0142 
   11700    298.63079   -1133.5106     6412.429    11658.707    1722.6364 
   11800     304.2652   -1138.2603    6463.2322    11825.131    1763.2405 
   11900    301.44331   -1143.6395    6413.2337    11709.468    1741.5636 
   12000    305.37113   -1143.4702    6315.7479    11696.063    1704.8145 
   12100    304.71725   -1131.6114    6422.9857    11801.191    1746.0228 
   12200    297.05855   -1135.8702     6295.695    11506.025     1691.794 
   12300    297.57724   -1141.6314    6332.7412    11548.391    1672.9108 
   12400    299.39558   -1139.4531    6466.9459     11723.62    1716.3813 
   12500    304.83043   -1140.9569    6517.8349    11889.113     1827.995 
   12600    301.06778    -1138.146    6282.3669    11576.072    1748.0447 
   12700    298.97233   -1141.1784    6393.6402    11639.547    1848.0289 
   12800    300.95443   -1145.1892    6339.0022    11623.243    1814.6559 
   12900     300.5936   -1133.5896    6454.7685      11742.9    1864.7556 
   13000    303.62893   -1142.3304    6505.1109    11849.347    1909.6842 
   13100    299.05637   -1138.6564    6344.0489    11594.273    1887.8155 
   13200    294.71343   -1133.7688    6385.7492    11548.081    1874.9974 
   13300    303.62434   -1135.8559    6250.9387    11601.551    1810.5956 
   13400    302.93024    -1130.842    6405.6043    11746.402    1799.1121 
   13500    297.13663   -1126.6458    6541.7613    11762.984    1808.7278 
   13600    304.18763   -1122.0244    6508.3261    11884.804    1796.2251 
   13700    297.63305   -1121.3678    6420.6693    11657.775    1783.1444 
   13800    308.70667   -1118.7094    6274.5714    11750.906    1741.0795 
   13900    298.16944   -1118.6055    6555.5556    11806.883    1815.3036 
   14000    298.08589   -1119.6968     6414.934    11663.385      1769.45 
   14100    304.47147   -1121.3495    6420.4954    11803.712    1775.0318 
   14200    298.75503   -1116.5376    6490.5426    11756.448    1781.7495 
   14300    301.56392   -1123.7358    6449.7107    11768.425    1721.1244 
   14400      297.784   -1130.8112    6361.8755    11592.763    1709.0245 
   14500      299.997   -1141.1539    6388.7905    11656.612    1755.1264 
   14600    303.84469   -1140.6922    6400.8321    11751.316     1784.411 
   14700    291.52655   -1146.3887    6371.8637    11453.492    1673.0086 
   14800    296.73986   -1149.0798    6440.2031    11630.515    1697.1719 
   14900    301.15737   -1149.6454    6440.5961    11724.716    1738.0703 
   15000    301.05098   -1155.9896    6336.0974      11611.6     1751.023 
   15100    298.39461   -1153.9092    6338.9896    11559.824    1775.9286 
   15200    298.06733   -1157.4323    6411.1272    11621.446    1854.4613 
   15300    298.62565   -1155.3033    6362.9727    11587.348    1770.8644 
   15400    303.08622   -1157.7709    6495.6786     11812.88    1824.8133 
   15500    298.22254   -1158.4699     6429.733     11642.33    1792.9487 
   15600    299.71029   -1152.4173    6346.3255    11596.759    1751.9378 
   15700    297.03025   -1168.2917    6383.4381    11560.742    1755.1445 
   15800    298.58492   -1169.4028    6322.6728    11532.079    1694.0641 
   15900    299.12737   -1165.2531    6357.3649    11582.509    1773.0758 
   16000    301.10103   -1163.8379    6370.8575    11639.581    1842.1912 
   16100    299.20158   -1159.7619    6243.7336    11475.954    1713.6294 
   16200    298.44787   -1158.5637    6477.5667    11694.884    1788.7631 
   16300    301.20057   -1155.0067    6343.0804    11622.762      1726.53 
   16400    295.59702   -1148.5769     6465.816    11632.216    1803.4424 
   16500    303.68945   -1145.3041    6320.3929    11662.948    1739.3325 
   16600    297.40688   -1145.1836    6380.1388    11588.597    1802.3516 
   16700     309.3219   -1141.7701    6479.9896    11946.407    1787.0531 
   16800    301.68716   -1138.5089    6505.6097    11812.184    1738.8645 
   16900    296.72275   -1132.4821    6391.8587    11598.403    1698.5081 
   17000    295.90908    -1129.073    6418.3912    11610.962    1756.7028 
   17100     301.1914   -1125.7043    6360.0297    11668.818    1687.3416 
   17200    300.95695   -1127.1158    6480.5348    11782.902    1744.7189 
   17300    301.25934   -1123.2863    6432.6918    11745.349    1781.2532 
   17400    301.23225   -1125.4378    6427.8802    11737.807    1727.4993 
   17500     296.7777   -1122.2466    6540.2789    11758.233    1711.6069 
   17600    303.10639   -1123.6874    6515.4883    11867.204    1783.8758 
   17700    295.47173    -1127.388    6418.1597    11603.072    1713.6345 
   17800    300.09514   -1127.2085    6368.7119    11652.576    1667.0684 
   17900    299.22244   -1125.1413    6539.7543    11807.041    1779.7574 
   18000    300.79637   -1122.7884    6507.1381    11810.403    1750.7619 
   18100    301.03649   -1131.8035    6441.3445    11740.724    1802.7049 
   18200    300.65185   -1135.3466    6353.3497    11640.969    1822.0155 
   18300    297.93396   -1135.5503    6370.6181     11599.97    1830.3345 
   18400    296.52581   -1134.5736    6407.4199    11607.665    1778.1362 
   18500    303.67406   -1137.6421    6455.4845    11805.373    1783.8665 
   18600    298.57606    -1140.494    6435.9772    11674.103    1793.4483 
   18700    302.13884   -1146.9297    6370.6462    11678.449    1818.6844 
   18800    300.33505   -1145.4341    6406.0037    11676.767    1799.0137 
   18900    294.56696    -1154.354    6419.3107    11557.928    1808.0915 
   19000    300.51722   -1151.6732    6370.3332    11638.749    1841.2819 
   19100    301.80425   -1150.5437    6355.1676    11652.209     1789.113 
   19200    293.82629   -1154.9824    6266.5103    11388.676    1759.1498 
   19300    304.86173   -1150.7799    6376.4036    11738.527    1852.5222 
   19400    293.87746   -1151.5523    6375.2309     11501.92    1790.8769 
   19500    303.82542   -1142.1843    6322.1415    11670.721    1864.0056 
   19600    300.20175   -1151.2551    6333.9295    11596.024    1865.6789 
   19700    294.51717   -1149.6497    6408.1493    11550.407    1830.5534 
   19800    304.24365   -1144.6749    6468.0665     11823.09    1777.4237 
   19900    297.78975   -1151.3039    6378.9839    11589.501    1832.6853 
   20000     300.3415   -1151.0317    6272.3731    11537.677    1784.0735 
   20100     298.7563   -1146.4985    6410.0665    11646.038    1770.0308 
   20200    297.37532   -1136.3287    6490.2815     11706.92    1803.7738 
   20300    300.81191   -1144.6992    6452.5575    11734.243    1831.7346 
   20400    296.54297   -1138.2174    6301.2296    11498.198    1747.8435 
   20500    307.10266   -1137.3455    6401.5628    11824.995    1884.2788 
   20600    299.45812   -1136.2257    6412.3223     11673.56    1889.9095 
   20700    299.05127   -1133.4846    6520.2892    11775.576    1800.1778 
   20800    302.48491   -1130.4575    6613.6016     11945.27    1831.5645 
   20900    298.67589    -1132.533    6380.9969    11629.216    1794.0606 
   21000    304.33438   -1125.1445    6337.2793    11713.772    1807.3166 
   21100    297.09171   -1127.0112    6422.1146    11642.012    1863.3086 
   21200    303.32445   -1122.6956    6488.8268    11846.193    1888.1251 
   21300     301.3891   -1127.1541    6495.9519    11807.513     1834.301 
   21400    302.28186   -1130.0355    6378.5604    11706.313    1850.7288 
   21500    304.06828   -1134.7764    6436.8501    11798.026    1864.3171 
   21600    297.83029   -1137.0535     6415.437    11641.071    1793.2108 
   21700    303.57041   -1137.8642    6409.2009    11756.653    1791.5337 
   21800    298.58832   -1142.8068    6403.7557     11639.83    1814.5381 
   21900     299.2582   -1145.8117    6431.3525    11678.733    1863.8883 
   22000     295.4511   -1149.4867    6384.6747    11547.048    1805.9473 
   22100    300.71246   -1153.9594    6381.2518    11651.553    1863.0788 
   22200    295.43532   -1157.2594    6291.0197    11445.283    1825.8062 
   22300    303.63722   -1152.1759    6402.3463    11736.914    1818.9146 
   22400    299.94941   -1154.5145    6416.7325    11670.177     1743.885 
   22500    300.17387   -1152.0674    6434.7034     11695.39    1795.7787 
   22600    302.37081   -1156.5196    6375.0406    11678.209    1766.2023 
   22700    297.91388   -1158.8546    6362.1957    11567.814    1773.2502 
   22800    298.50463   -1152.3308    6500.9323    11725.695    1798.4798 
   22900     300.1441   -1167.7102     6358.371    11602.779    1753.9002 
   23000    300.38426   -1164.5784    6352.5119    11605.182    1786.3876 
   23100    297.55436    -1162.234    6502.0855    11696.644    1885.1499 
   23200    297.86149    -1159.543    6331.1541    11534.965    1913.3419 
   23300     301.7419   -1158.0067    6330.8486    11619.095    1903.5719 
   23400     296.6908   -1151.5579    6386.1438     11572.93    1874.8647 
   23500    298.74204    -1154.006    6426.2338    11654.393    1879.6933 
   23600    299.30349   -1146.8746    6458.6509    11705.936    1823.3069 
   23700    299.38706   -1146.5681    6410.1856    11659.563     1792.816 
   23800    304.33951   -1146.2328    6379.6253    11735.139    1864.6595 
   23900    295.24044     -1142.95    6382.1907      11546.6     1772.654 
   24000    303.56621    -1141.153     6484.264    11828.337    1750.8402 
   24100    300.49475   -1143.0415    6532.5541    11809.122     1816.381 
   24200    299.33253   -1138.4658    6387.7014    11644.016    1780.4519 
   24300    304.89299   -1136.7839    6261.0018    11637.789    1720.7331 
   24400    300.00175   -1139.7853    6508.4601    11777.752    1840.4202 
   24500    301.42884   -1137.3531    6518.9383     11821.15    1772.4499 
   24600    298.71171   -1132.9269    6534.8678    11783.458    1775.0588 
   24700    301.67051   -1143.5467      6406.67    11707.851    1777.5997 
   24800    297.26547    -1141.268    6303.9354    11513.288    1756.3143 
   24900    304.49176   -1141.4592    6423.2319    11786.772    1806.2505 
   25000    299.06158   -1146.7176    6482.7256        11725    1843.3558 
   25100    300.29523    -1147.933    6494.9485    11762.362    1890.3815 
   25200    300.45376   -1150.6779    6325.2966    11593.352    1777.7127 
   25300    299.15983   -1156.2823    6451.1126    11685.921    1851.0462 
   25400    302.82575   -1154.4352     6389.495    11704.467    1860.2905 
   25500    298.23376   -1157.6179    6350.3174    11564.006    1901.0205 
   25600    300.75097   -1158.8061    6391.1928     11657.47    1923.2075 
   25700    299.20765   -1158.8283     6367.708    11600.992    1868.4641 
   25800    297.68456   -1164.7086    6341.9201    11536.785    1856.6741 
   25900    300.00752   -1166.5551    6450.3523    11692.998    1935.3376 
   26000     304.8076   -1168.2406    6459.9533    11803.459    1853.2382 
   26100    296.41353     -1170.13    6391.4095      11553.7    1773.6301 
   26200     298.0911    -1168.464    6498.8697    11698.665    1853.5248 
   26300    301.08347   -1166.7386    6361.7962    11627.244    1778.8781 
   26400    300.05304   -1163.0774    6403.5678    11650.663    1817.9075 
   26500    295.83957   -1159.8974    6432.4107    11592.672     1893.182 
   26600    303.65899   -1164.1784    6352.8659    11675.896    1824.9114 
   26700    299.20222   -1160.2357    6386.8434    11618.604    1779.8824 
   26800    301.23855    -1154.141    6506.4153    11787.774    1910.6916 
   26900    297.22225   -1157.3392    6339.5692    11531.927    1895.6142 
   27000     302.1843   -1159.9682    6390.4088    11686.145    1885.8933 
   27100    299.67425   -1155.9552    6425.2336    11671.359    1839.4544 
   27200    299.72706   -1148.3825    6421.5349    11676.361    1792.4592 
   27300    299.25446   -1143.0897      6523.54    11773.563    1761.3947 
   27400    301.52093   -1142.0883    6477.8709    11777.315    1785.0021 
   27500    298.79601    -1141.907    6396.6866    11638.098    1824.1758 
   27600    294.44707   -1140.6392    6450.7888    11600.559    1876.5193 
   27700    303.15824   -1137.4911    6375.5222    11714.542    1752.8024 
   27800    293.95737   -1138.0325    6524.0262    11665.942    1799.5265 
   27900    300.73534    -1134.414    6499.9308    11790.266    1805.5304 
   28000    299.69455   -1140.4939    6320.1592     11582.18    1731.4653 
   28100    298.60332   -1144.2746    6485.1223     11720.05    1827.0466 
   28200    301.61832   -1146.5794    6542.5484    11839.582    1899.7025 
   28300    298.41172   -1148.5138    6444.2723    11670.867    1824.4088 
   28400    306.70586   -1153.8934    6409.5976    11808.004    1824.0776 
   28500    298.59001   -1156.1928    6444.0536    11666.778    1819.3074 
   28600    301.25652   -1155.7985    6380.8058    11660.891    1768.2387 
   28700    299.16688   -1151.6426    6428.4754    11668.074    1812.1978 
   28800    300.52255    -1164.888    6436.2729    11691.588    1839.3062 
   28900    301.27727   -1162.4051    6404.2595    11678.181    1812.0989 
   29000    298.21546   -1164.9257    6357.3788    11563.369    1875.1054 
   29100    303.53291   -1162.5967    6417.3887    11739.307    1954.1056 
   29200    302.68613   -1161.2058    6358.2271    11663.446    1887.4484 
   29300    300.99339   -1166.0379    6399.6761      11663.9    1899.5554 
   29400    295.88954   -1175.2968    6406.0874    11552.017    1888.7744 
   29500    301.98341   -1163.1189    6477.1588    11765.452    1953.3452 
   29600    298.98329     -1169.19    6348.7372    11566.866    1866.3839 
   29700    298.33573    -1168.458    6371.0775    11576.105    1901.7302 
   29800    298.39628   -1166.3956    6354.4061    11562.789    1885.8918 
   29900    307.17374   -1163.6347    6398.7811    11797.442    1882.6718 
   30000    299.43068   -1162.1084    6385.4361    11620.205    1866.4826 
   30100     302.8273   -1155.1247    6487.6201    11801.936    1872.6462 
   30200     299.1732   -1154.3614    6529.9808    11766.996    1826.8594 
   30300    295.96226   -1153.1413    6406.0079    11575.646    1847.2541 
   30400    303.44572   -1154.0691    6291.1828    11619.766     1813.781 
   30500    296.09534   -1156.5641    6455.2772    11624.336     1800.859 
   30600     300.1596   -1145.6183    6511.9957    11778.827     1847.663 
   30700    297.28481   -1146.1849    6518.5701    11723.419    1866.4131 
   30800     301.9638   -1148.2322     6333.769     11636.53    1784.2279 
   30900    303.52974   -1146.9213    6447.9076    11785.434    1860.3465 
   31000    297.21118   -1145.1759    6540.0559    11744.341    1843.1651 
   31100    302.50613   -1143.0616    6392.2382    11711.756    1826.9814 
   31200     294.2754   -1146.1187    6463.2275    11603.851    1815.0466 
   31300    298.52684   -1147.6607    6541.3901    11771.297    1794.3305 
   31400    307.09186   -1151.0816     6518.788    11928.253    1787.8732 
   31500    302.12098   -1156.6754    6329.8357    11627.511    1746.9175 
   31600    302.44922   -1154.9446     6480.419    11786.838    1859.5588 
   31700    299.00705   -1149.4797     6338.381    11576.728    1785.2056 
   31800    303.19261   -1159.5715    6488.0819    11805.755    1865.1414 
   31900      299.154   -1155.7146    6458.3464    11693.598    1847.2132 
   32000    301.09347   -1162.5956    6345.5189    11615.323    1822.6017 
   32100    301.49515   -1164.3517    6370.9637    11647.593    1882.5118 
   32200    299.40273   -1166.7185     6480.186    11709.747    1884.5237 
   32300    304.25342   -1161.8193    6332.2604    11670.349    1832.6618 
   32400    298.69468   -1161.6157    6289.5754    11509.113    1865.4095 
   32500    299.36036   -1161.5057    6467.6601    11701.529    1888.2136 
   32600    304.90542   -1159.9909    6521.8914    11875.737    1915.8401 
   32700    295.37906   -1164.7986    6331.7743    11477.296    1873.1481 
   32800    301.02366   -1163.0652    6205.1197    11472.963    1781.7946 
   32900    301.20289    -1161.337     6441.602    11715.003    1774.2796 
   33000    301.43836   -1158.0247    6725.0921    12006.836     1862.241 
   33100     303.3453   -1158.8628    6323.7433    11645.387    1762.4719 
   33200    298.25583   -1158.6141    6305.2622    11518.426    1829.9685 
   33300    301.60451   -1154.6282    6367.0171    11655.706    1903.4088 
   33400    302.51033   -1154.1831    6426.0308    11734.517    1815.2202 
   33500    300.51042   -1147.0486    6535.6431    11808.539    1882.3177 
   33600    299.15597   -1148.5817    6433.8802    11676.307    1817.8302 
   33700    300.28856   -1147.7757    6437.3901    11704.819    1765.9753 
   33800    301.46303   -1148.7415     6514.687     11806.24    1847.9209 
   33900    299.25254   -1145.8232     6384.902     11632.15    1847.6794 
   34000    295.15248   -1141.6132    6503.4643    11667.331    1791.9919 
   34100    302.47749   -1143.3114    6457.4832    11776.139    1800.7232 
   34200    302.14089   -1140.0391    6385.4137    11700.151    1822.2387 
   34300    301.02544   -1143.0222    6345.6785    11633.603    1825.6206 
   34400    299.49072   -1142.6858    6486.3962     11741.87    1845.2133 
   34500    305.57507   -1148.5839    6568.8221    11948.381    1906.1822 
   34600    298.91637   -1147.0559    6433.7906    11672.624    1775.1461 
   34700    299.37149   -1154.5744    6378.0887    11619.127    1832.8548 
   34800    299.35703   -1150.6784    6407.4056    11652.031    1916.9343 
   34900    296.37921    -1151.241    6419.2374    11599.683    1818.6032 
   35000    301.31014   -1158.7063    6391.8134    11670.136    1769.7503 
   35100    300.89424   -1155.2095    6479.0524    11751.987    1886.1054 
   35200    306.39262   -1162.8843    6391.7867    11774.511    1918.5261 
   35300     299.0576   -1165.6835    6275.6895    11498.913    1841.0053 
   35400    301.50457     -1162.72    6482.6803    11761.143    1967.2501 
   35500    299.01874   -1164.6573    6409.5723    11632.992    1917.0205 
   35600    300.86569    -1169.042    6334.9327    11593.425    1783.5003 
   35700    301.09263   -1172.3505    6483.9452    11743.977    1803.6939 
   35800    293.95329   -1170.6158    6524.3256    11633.571    1856.3404 
   35900    299.20202    -1176.091    6279.0573    11494.958    1804.2867 
   36000    300.29499   -1170.6744    6343.2631     11587.93    1879.3209 
   36100    295.47939   -1168.5751    6362.5168    11506.406    1863.6095 
   36200     301.8488   -1167.1921    6458.3298    11739.674    1913.4062 
   36300    297.51539   -1166.5856    6495.8266    11685.201    1889.0348 
   36400    303.97136   -1168.1963     6326.958    11652.643    1842.8782 
   36500     299.5121    -1162.154     6329.224    11565.686    1749.4501 
   36600    300.69289   -1172.2542     6448.628    11700.216    1739.9376 
   36700    299.42227   -1167.6011    6348.7356    11577.832    1724.4452 
   36800    299.74754   -1159.6297    6491.8066    11735.823    1807.9436 
   36900    300.68921   -1160.1773    6331.2413    11594.828    1742.1722 
   37000    298.40697    -1156.471    6393.3827    11611.919    1865.4916 
   37100    301.79946   -1151.6509    6483.2726    11779.104    1886.6924 
   37200    298.73224   -1150.3126    6388.1275    11619.771    1808.3639 
   37300    304.97151   -1151.7844    6449.6444    11813.108    1833.9287 
   37400    297.74361   -1148.8963    6505.5429    11717.482    1844.1702 
   37500    301.81394   -1145.5681    6382.6437    11684.867    1757.3036 
   37600    301.31637   -1149.2207    6393.5916    11681.533    1865.3662 
   37700    297.71888   -1146.1669    6409.3056    11623.446    1870.2197 
   37800    300.81297    -1145.955    6561.5645    11842.017    1875.9826 
   37900    299.46218   -1144.3345    6409.6409    11662.856    1843.7246 
   38000    299.18786   -1146.8412    6393.5496    11638.398    1886.6486 
   38100    299.31008   -1151.4226     6464.779    11707.657    1868.4791 
   38200    298.17568   -1150.2188    6417.0533    11636.901    1801.6549 
   38300    298.28687   -1149.4119    6452.9193    11675.949    1883.1734 
   38400    299.82429    -1158.315     6403.071    11650.042    1874.5399 
   38500     305.0976   -1157.6326    6342.7942    11703.104    1849.5585 
   38600    297.97959   -1157.6602    6493.3064    11701.523    1881.6877 
   38700      300.658   -1160.4699    6351.2178    11613.845    1851.8388 
   38800    297.40279   -1163.5928     6388.312    11578.273    1905.1968 
   38900    300.46841   -1163.5733     6355.414    11610.887    1818.1508 
   39000    299.43307   -1159.5033    6504.8678    11742.293    1918.2594 
   39100    297.47244   -1163.8281    6478.8598    11670.074    1913.0662 
   39200    303.54164   -1164.1166    6319.9268    11640.511    1822.4975 
   39300    300.00872   -1162.4408    6430.7027    11677.488    1809.0237 
   39400    294.02869   -1167.9786    6441.0605    11554.554    1847.7472 
   39500    299.13436   -1166.4881    6361.9311     11585.99    1800.3823 
   39600    296.77513   -1165.2756    6493.3186    11668.188    1899.7311 
   39700    297.98336   -1156.9352    6379.0326    11588.055    1934.2434 
   39800    302.55198   -1169.3104    6269.6547    11563.903     1839.916 
   39900    297.69834   -1165.1958    6467.2217    11661.894    1887.0175 
   40000    300.38843   -1158.6728    6508.3686    11767.034    1939.0825 
   40100    299.89344   -1156.6677    6417.0886    11667.184    1854.1744 
   40200    294.90825   -1161.5695    6427.4487    11566.141    1875.6912 
   40300    300.45195   -1153.7021    6398.0364    11663.029    1913.5542 
   40400    304.62748   -1152.3384     6470.026    11825.586    1943.7952 
   40500     298.0383   -1150.2437    6333.4659    11550.353    1810.4376 
   40600    303.41694   -1149.8635    6439.7245    11771.898    1827.9854 
   40700    298.22256   -1152.5129    6646.1537    11864.708    1940.8286 
   40800    303.57001   -1150.8031    6324.5586    11659.063    1779.5969 
   40900    293.42435   -1150.9308    6375.1318    11492.762    1818.2821 
   41000    307.21761   -1143.0607    6451.1932    11871.365     1860.125 
   41100    297.66625   -1141.6754    6443.4022    11660.909    1801.0463 
   41200    297.84555   -1145.5244    6494.5055    11711.994    1840.4816 
   41300    303.53031   -1142.6358     6429.632    11771.456    1945.2871 
   41400    299.81523   -1149.4992     6231.708    11487.301    1782.3348 
   41500    301.32241   -1152.6448    6417.6523    11702.298    1844.6833 
   41600    296.83576   -1148.9874    6450.5652    11643.018    1811.6095 
   41700    304.70978   -1156.4078    6472.4622    11825.711    1840.4885 
   41800    292.30734     -1155.76    6396.8458    11485.784    1830.1359 
   41900    302.14201   -1159.7724    6374.1509    11669.179    1918.9843 
   42000    301.01409     -1150.97    6401.0066    11680.741    1837.0628 
   42100    295.85516   -1158.1803    6390.9776    11553.289    1784.3138 
   42200    301.29594   -1153.6587    6386.8282    11669.895    1844.7934 
   42300    299.70508   -1163.2969    6408.3367    11647.779    1847.4939 
   42400    299.71636   -1167.8708       6453.6    11688.709     1834.972 
   42500    295.42714   -1167.4028    6357.9652     11501.91    1769.0946 
   42600    302.36777   -1165.1011    6392.1602    11686.683    1879.9331 
   42700    298.04132   -1167.0968    6429.0374    11629.136    1880.7322 
   42800    301.43232   -1164.5893    6427.9049    11702.955    1900.1013 
   42900    301.00846   -1161.1614    6412.3382    11681.761    1938.7597 
   43000    294.30499   -1161.4419    6380.8952    11506.828    1886.3087 
   43100    300.60229   -1163.7826    6374.7082    11632.832     1899.598 
   43200    299.68169    -1166.083    6331.0044    11567.161    1915.2353 
   43300    296.42834   -1168.8998    6436.8136     11600.65    1881.9889 
   43400    302.83984   -1162.8762    6448.4309    11755.263    1909.1682 
   43500    297.20882   -1163.6609    6398.9863    11584.736    1891.1765 
   43600    299.02839   -1156.9331    6501.7971    11733.147    1898.8871 
   43700    299.06319   -1160.4354    6479.3141    11707.905    1905.4913 
   43800    301.65857   -1162.5466    6291.3404    11573.266    1813.7242 
   43900    297.63725   -1165.7813     6484.021    11676.803    1895.3505 
   44000    299.94749   -1162.2262    6540.7062    11786.398    1955.7022 
   44100    300.65317   -1159.3885    6317.7684    11581.374    1850.0789 
   44200    299.13224   -1160.5569    6309.5999    11539.544    1855.7341 
   44300    298.91377   -1155.1027    6562.7649    11793.496    1993.0942 
   44400    297.33963   -1157.4452    6471.3326    11666.092    1819.9172 
   44500    300.53468   -1160.4331    6463.7755    11723.805    1835.5926 
   44600    304.05769   -1162.7995    6470.2864    11803.213    1915.5078 
   44700    292.74923   -1166.6897    6346.1541    11433.603    1753.4336 
   44800    299.13919   -1162.3285    6404.6068    11632.928    1785.3674 
   44900    300.90782    -1160.336    6488.0997    11756.198    1833.9991 
   45000    294.89723   -1163.9754    6511.4328    11647.484     1894.641 
   45100    303.69614   -1165.7484    6258.5681    11580.822    1840.1545 
   45200    294.46657   -1156.8313    6432.7759    11566.771    1947.7397 
   45300    305.60782   -1159.6713    6528.0568    11897.228    1963.4004 
   45400    298.08457   -1158.5875    6325.0239    11534.556    1830.0221 
   45500    305.24603    -1156.869    6412.7387    11776.983    1932.4223 
   45600    301.29404   -1158.8236    6403.9849    11681.846    1894.7528 
   45700    296.65634   -1162.7659    6518.2511    11693.093    1861.4509 
   45800    297.82236   -1163.1332    6443.3076    11642.692    1821.8558 
   45900    307.04555   -1164.9805    6367.8634     11762.44    1843.9388 
   46000    299.34329    -1162.948    6414.3303    11646.392    1884.9776 
   46100    300.34467    -1159.053    6340.7863    11598.136    1841.8442 
   46200    301.78043    -1155.612    6476.8285    11768.292     1886.675 
   46300    298.61333   -1150.9377    6440.6539    11669.132     1829.895 
   46400    299.05783   -1145.3746    6355.8397    11599.377    1800.7293 
   46500    299.15791   -1143.8596    6491.0839    11738.274    1902.0681 
   46600    302.44561   -1154.5183    6327.1801    11633.948    1903.1009 
   46700    299.83625   -1151.5976     6341.484    11595.428    1860.4755 
   46800    294.99165   -1150.9219    6431.9284    11583.051    1818.4968 
   46900    301.78949   -1160.5031    6506.2885    11793.055    1823.4211 
   47000    298.91176   -1154.2878    6472.2971      11703.8    1789.8898 
   47100    297.20635   -1150.8043    6368.2359    11566.789    1808.8356 
   47200    305.00961   -1155.4754    6439.6302    11800.217    1924.7014 
   47300     298.0213   -1157.1306    6402.9911    11612.628    1850.1332 
   47400    300.14434   -1152.9898    6354.1025    11613.236    1834.2965 
   47500    298.74097   -1148.8455    6516.9769    11750.274    1915.3067 
   47600     304.7196   -1150.8478    6507.6304    11866.649    1875.6108 
   47700     299.1514   -1152.7384    6367.4514    11605.624    1806.1674 
   47800    302.70582   -1160.6729    6337.3393    11643.512    1830.3909 
   47900    296.82966   -1163.2742    6439.7178    11617.754    1854.2034 
   48000     303.7124   -1160.7728    6499.5713    11827.148    1851.6317 
   48100    298.66414   -1161.1003    6395.8949    11615.296    1831.4746 
   48200    298.74601   -1160.0833    6307.3244    11529.491    1833.3702 
   48300    301.15109   -1162.3821    6466.4038    11737.653    1882.9012 
   48400    304.83071   -1163.8139    6442.8013    11791.228    1903.2713 
   48500    301.04112   -1168.7525    6425.4589    11687.988    1892.4592 
   48600     296.4791   -1162.7012    6389.8774    11560.997    1876.8985 
   48700    303.43665   -1163.9815    6450.6548    11769.132    1941.1115 
   48800    294.54029   -1168.8847    6376.0692    11499.586    1901.2511 
   48900    300.29372   -1163.6676    6385.6956    11637.342    1807.2237 
   49000    300.99354   -1160.0687    6488.1488    11758.345    1913.4082 
   49100    298.28596   -1163.9701    6308.1935    11516.645    1828.5544 
   49200    304.70549   -1160.7223    6379.9226    11728.765    1883.1481 
   49300    304.11659   -1159.4677     6355.181    11692.698    1854.8688 
   49400    302.09619   -1156.7758    6474.6412    11771.687    1971.8455 
   49500    297.37975   -1162.5328    6393.1715    11583.701    1888.8643 
   49600    300.25024    -1162.011    6373.7022    11626.077    1827.3867 
   49700    304.15399   -1158.9768    6428.0627    11766.869    1823.5263 
   49800    296.53965   -1162.5611    6430.0329    11602.586    1775.9213 
   49900    303.71149   -1162.3434    6468.4385    11794.425    1820.2248 
   50000    299.47383   -1163.1099    6400.7476    11635.437    1828.3204 
   50100     305.3617   -1153.3489    6448.7195    11818.955    1888.3185 
   50200     301.5658   -1151.4988    6527.6931    11818.685    1932.5553 
   50300    297.79314    -1153.121    6364.9334    11573.706    1892.1759 
   50400    299.60273    -1155.598    6330.3439    11575.299     1892.116 
   50500    296.18604   -1150.4036    6422.0664    11599.223    1845.5391 
   50600    298.63717   -1156.6935    6445.2764    11668.508    1793.7872 
   50700    296.90115   -1152.6496    6474.5336    11664.722    1873.0494 
   50800    304.74785   -1156.1843    6606.4665    11960.752    1930.8265 
   50900    302.84859   -1153.1772     6389.444    11706.162    1862.0899 
   51000     296.2274   -1156.9403    6408.2486    11579.752    1845.1354 
   51100    299.51058   -1155.5771    6513.0265    11756.033    1894.1982 
   51200    297.21677   -1153.6891    6387.3767    11583.268    1900.8351 
   51300    299.36487   -1157.4979    6318.3405    11556.314    1820.2363 
   51400    302.48328   -1153.7195    6525.3121    11833.684    1871.6898 
   51500    297.72391   -1159.4927    6406.6737    11607.596    1850.2417 
   51600    299.41583   -1162.4829    6348.6558    11582.733    1888.9678 
   51700    301.36344    -1163.675    6465.9327    11740.425    1885.2153 
   51800    305.34661   -1159.0655    6508.0183    11872.215     1890.816 
   51900     299.0941   -1170.6052    6356.0996    11575.181    1894.6059 
   52000    299.46129    -1171.387    6469.4161     11695.56     1973.897 
   52100    298.77567   -1167.5073    6405.6712    11621.048    1884.3837 
   52200    305.92635   -1165.8484      6356.33    11726.129    1934.3171 
   52300    294.13695   -1164.7809    6429.2497    11548.254    1911.8759 
   52400    301.53738   -1169.9644    6458.3876    11730.306    1908.2854 
   52500    299.27769   -1169.0541    6374.8067    11599.361    1916.9281 
   52600    298.96713   -1166.9138    6408.8106    11628.871    1909.5549 
   52700    298.30951   -1172.3173     6368.842     11569.45    1828.7784 
   52800    303.37133   -1163.9055    6478.1864    11795.344    1922.8824 
   52900    304.04061   -1170.8162    6382.3705    11706.915    1857.0533 
   53000    297.21604   -1165.7434    6394.1756    11577.997    1859.6284 
   53100    302.28256   -1164.9698    6358.0864     11650.92    1830.4988 
   53200    300.96479   -1167.9459    6485.9327    11747.638    1914.7526 
   53300    299.63037   -1168.6123    6439.5544    11672.085    1881.9413 
   53400    300.74415   -1158.5596    6350.6091    11616.987    1867.3204 
   53500    298.05793   -1164.3783    6465.0718    11668.244    1933.2695 
   53600    299.75328   -1163.6965    6417.0236    11657.096    1856.5829 
   53700    297.70105   -1159.4931    6357.0786    11557.512    1853.7742 
   53800    304.17397   -1159.9146    6389.5985    11727.894    1893.4757 
   53900    300.52198    -1155.556    6509.5204    11774.155     1954.059 
   54000    301.45563   -1154.8016    6464.2911    11749.626    1984.2391 
   54100    301.85458   -1153.3093    6353.5928    11648.943    1979.0631 
   54200    300.22797   -1153.9787    6354.1224    11614.054    1901.5478 
   54300    294.91751   -1158.8453    6508.7972    11650.412    1879.7134 
   54400    301.70309   -1157.5297     6562.591    11850.485    1864.0959 
   54500    295.37126   -1155.8366    6425.1512    11579.468    1795.6745 
   54600    306.61926   -1156.5244    6381.0212    11774.947    1883.5699 
   54700    303.66395    -1156.765    6374.8967    11705.446    1903.8692 
   54800    300.88333   -1151.8485    6513.1749    11789.237    1963.8505 
   54900    296.12076   -1154.4837     6472.455    11644.137    1974.9693 
   55000    301.33375   -1153.3062    6364.0024    11648.229    1958.2979 
   55100    298.40086   -1151.7733    6359.6205    11582.724     1903.045 
   55200    298.81378   -1160.0323    6467.5554    11691.221    1910.1734 
   55300    301.19023   -1150.3259    6364.8094    11648.951    1842.6388 
   55400    298.46043   -1157.8775    6510.0317    11728.303    1907.2816 
   55500     300.7616   -1161.7162    6440.8679    11704.462      1864.06 
   55600     300.1638   -1161.6329    6324.9856    11575.892    1863.1326 
   55700    305.20635   -1165.0469    6443.4481    11798.667    1931.4429 
   55800    299.37254   -1159.4079    6457.7268    11693.954    1842.8779 
   55900    300.70545   -1157.2228    6481.9922     11748.88    1903.6781 
   56000    300.87372   -1147.3714    6395.0053    11675.339    1919.1904 
   56100    300.50485    -1157.226     6436.147    11698.746    1937.8613 
   56200    300.57056   -1160.2179    6362.6439    11623.655    1936.6801 
   56300    303.75298   -1160.5832    6378.4054    11707.039    1940.6521 
   56400    301.89425   -1159.0571    6469.7408    11760.191    1901.0488 
   56500    294.19303   -1161.3074    6419.4604    11543.136    1802.8317 
   56600    297.74072   -1162.8157    6461.5157    11659.474    1931.3001 
   56700    302.05461    -1160.216    6392.2757    11684.993    1930.4995 
   56800    297.57639    -1154.394    6359.7443    11562.613      1867.69 
   56900    300.15846   -1152.1827    6524.1882    11784.431     1920.203 
   57000    299.88826   -1152.9315    6442.8537    11696.575    1910.2195 
   57100    302.04774   -1157.8159    6361.5125    11656.483    1860.1176 
   57200    305.40273   -1161.8314    6530.4535    11893.083    1937.1934 
   57300    301.03633   -1159.8489    6378.4733    11649.804    1925.8997 
   57400    298.14726   -1156.3643    6403.5028    11616.597    1934.5221 
   57500    297.02837   -1159.7002    6506.1277    11691.983    1910.5679 
   57600    304.57576   -1160.8503    6525.6274    11871.571    1963.1793 
   57700    298.56675   -1163.0564    6430.7761     11646.14    1936.7417 
   57800    300.48713   -1159.8968    6369.1998    11628.749    1911.1672 
   57900    300.73112   -1152.9228    6393.9334     11665.67    1896.3972 
   58000    295.54402   -1160.9803    6452.4763     11605.34    1948.7276 
   58100    294.84256   -1154.0255     6414.709    11559.542    1918.2107 
   58200    304.01271   -1156.6845      6404.88    11742.961    1890.6622 
   58300    296.61982   -1165.9911    6384.4948    11555.331    1834.7613 
   58400    297.90275   -1164.8506    6428.8226    11628.207    1905.7233 
   58500    296.96602   -1160.3659    6408.0879    11591.945    1864.4119 
   58600    304.40444   -1165.9531    6502.7095     11839.89    1918.8724 
   58700    299.39131   -1163.3127    6357.1879    11589.911    1875.2248 
   58800    306.79049   -1158.0094     6319.959    11716.058    1883.9021 
   58900    298.55009   -1157.7408     6528.568    11748.892    1876.7084 
   59000    298.38246   -1153.2984    6499.5774    11720.762    1968.1753 
   59100    301.59196   -1157.3732    6395.6863    11681.362    1972.6997 
   59200     293.9389   -1154.4203    6383.0194    11508.153    1899.0146 
   59300    302.46301   -1159.0369    6344.9857    11647.607    1909.1148 
   59400    297.88631   -1160.2941    6616.0179    11819.608    1974.5695 
   59500    304.42692   -1158.5643    6483.1138    11828.164    1850.7377 
   59600    301.51992   -1160.0499    6430.6559    11712.116    1883.4809 
   59700    293.29516   -1158.9461    6403.5863    11510.441    1872.0831 
   59800    303.70195   -1154.1539    6496.7744    11830.747    1925.1047 
   59900     296.6153     -1155.65    6397.6421    11578.723    1893.1669 
   60000    306.79803   -1156.1257    6421.6667     11819.81     1947.103 
   60100    300.23455   -1158.3334    6433.2547    11688.972    1882.9852 
   60200    298.91235   -1157.8229    6527.6627    11755.644    1914.2887 
   60300    301.88138   -1160.9429    6465.3337    11753.623     1944.527 
   60400    300.18773   -1159.1583    6426.9455    11680.837    1943.2783 
   60500    296.78867   -1157.1581     6293.975    11477.251    1796.2568 
   60600    300.82766    -1159.506    6435.2916    11702.507    1858.5815 
   60700    303.59158   -1158.3872     6529.798    11857.179    1880.3425 
   60800    301.81606   -1164.7414    6417.4913    11700.587    1858.6534 
   60900    295.49895   -1168.8877    6317.2804    11461.274    1839.6356 
   61000    301.67997   -1170.0681    6511.7844    11786.646     1965.434 
   61100    302.55459    -1165.127    6538.2815    11836.769     1927.418 
   61200    295.74001   -1165.6314    6353.7264    11506.126    1869.0925 
   61300    301.02005   -1164.3683      6351.49    11617.953    1918.3226 
   61400    297.74388   -1166.2367     6382.599    11577.204     1892.868 
   61500    298.74557   -1163.8483    6495.3631    11713.755    1915.8834 
   61600    296.34937   -1168.6242    6362.7986    11525.224    1885.3178 
   61700     298.9708   -1171.7937    6475.6056    11690.864     1879.654 
   61800    301.19084   -1158.9952    6344.7912    11620.276    1821.7032 
   61900    300.12382   -1163.0164    6387.2197    11635.888    1902.9332 
   62000    298.53781    -1162.438    6458.5007    11673.865    1948.0129 
   62100     299.1047   -1164.5206    6352.9361    11578.328    1860.7606 
   62200    303.52377    -1164.596    6493.3121    11813.036    1895.2075 
   62300    299.06026   -1161.4743    6442.9072    11670.396    1939.9529 
   62400    302.91314    -1163.683    6354.9069    11662.498    1893.9318 
   62500    295.07304   -1151.2304    6453.1618    11605.714    1929.5038 
   62600    303.84191    -1158.851    6526.2053     11858.47    1940.3379 
   62700    298.30902    -1156.845    6420.6447    11636.714    1800.2176 
   62800    300.81549    -1150.367    6397.6393    11673.734    1865.2365 
   62900    300.02372   -1149.0632    6383.1349    11643.618    1836.5829 
   63000    300.43887   -1157.5538    6427.3383      11688.2    1845.0247 
   63100    302.51938    -1150.479    6428.4366     11740.82     1833.542 
   63200       298.06   -1150.7304    6492.5419    11709.406    1871.2745 
   63300    306.13427   -1148.7497    6494.1418    11885.481    1951.3514 
   63400    298.28084   -1150.3235     6417.618    11639.607    1901.8412 
   63500    302.56408    -1151.538    6452.1486    11764.428    1890.1084 
   63600    297.39069   -1151.0784    6493.1444    11695.362    1873.9296 
   63700    304.49924   -1153.4828    6436.4365    11788.113    1899.0765 
   63800    300.30303   -1160.1565    6469.0831     11724.44    1945.4372 
   63900    298.23704    -1155.607    6347.9581    11563.728     1845.122 
   64000    304.42576   -1158.2327    6430.2768    11775.633     1962.943 
   64100    297.16867   -1162.1235    6409.0612     11595.49    1933.4241 
   64200    301.94348   -1164.2796    6401.3605     11687.64    1918.6243 
   64300    296.31666   -1167.1443    6403.9284    11567.135     1982.044 
   64400    298.52975   -1167.5996    6366.9399     11576.97    1903.1624 
   64500     300.4501   -1172.4471    6469.9183    11716.127    1947.3876 
   64600    305.13335   -1175.1426    6337.1728    11680.736    1983.3676 
   64700    300.31217   -1172.8289     6460.007    11702.887    1911.0277 
   64800    304.15464   -1167.7462    6493.9589     11824.01    1907.6838 
   64900    298.38755   -1172.6741     6338.281    11540.199    1864.7795 
   65000    302.35505   -1168.3398    6452.1464    11743.158    1936.2544 
   65100    297.96097   -1168.0115    6463.8172    11661.285    1836.2043 
   65200    301.56796   -1170.1798    6378.1291    11650.486    1907.9618 
   65300    299.44977   -1163.9492    6397.9553    11631.291    1927.4038 
   65400     302.2415   -1167.5022    6492.4373    11781.861    1945.2035 
   65500    299.64384   -1169.2531    6419.6978    11651.876    1891.8265 
   65600    299.81146   -1171.4193    6441.1442    11674.737    1945.0934 
   65700     303.6618   -1169.8561    6455.5211    11772.933    1953.5365 
   65800    298.83649   -1164.2848    6410.6835    11630.582    1946.7936 
   65900    300.51979   -1161.1192    6437.7045    11696.729    2001.1398 
   66000    301.25976   -1155.3412    6416.3596    11696.971    1884.2286 
   66100    300.43596   -1156.0439    6430.2832    11692.592    1875.4303 
   66200    303.53687   -1151.7902    6397.4781    11730.287    1953.2117 
   66300    303.77308   -1153.7878     6412.922     11748.78    1913.0994 
   66400    302.86782   -1149.9943    6535.5173    11855.829    1849.1656 
   66500    302.12257   -1152.5654    6470.0854    11771.905    1837.3187 
   66600    294.70222   -1154.5148     6401.686    11543.032    1886.7669 
   66700    301.39646   -1151.4963    6393.0724    11680.449    1885.5102 
   66800    297.09598    -1148.548    6560.4302    11758.882    1965.7221 
   66900    304.01632   -1150.6353     6391.142    11735.349    1936.7531 
   67000     299.9924    -1151.119    6428.7815     11686.54    1892.0549 
   67100    302.93791   -1156.2212    6444.2096    11759.792    1892.7389 
   67200    299.04546   -1155.7848    6431.1916    11664.054    1916.7671 
   67300    296.62997   -1159.2658    6466.5854    11644.364    1876.1084 
   67400    300.52217    -1158.393    6423.4768    11685.279    1820.4044 
   67500    301.74266   -1161.5485    6389.3617    11674.082    1857.2386 
   67600    299.19433   -1164.4226    6481.6289    11709.034    1948.3727 
   67700    302.01528   -1162.2423    6470.5702    11760.421    1860.4871 
   67800    300.49685   -1166.2868    6284.8989    11538.266     1874.875 
   67900    300.09241    -1167.742    6344.1249    11587.397     1955.719 
   68000    302.86933   -1167.5496     6555.318    11858.107    1931.5435 
   68100    298.83618   -1167.8317    6482.9611    11699.306    1905.3595 
   68200    303.04471   -1167.6674    6364.7669    11671.185    1892.9118 
   68300    300.42877   -1169.6384    6432.4666    11681.028    1882.2469 
   68400    300.13801   -1169.9516     6457.021    11699.057    1886.4083 
   68500    302.60634   -1172.0864    6385.3509    11677.985    1996.1872 
   68600    298.97954    -1169.273    6388.6649    11606.631    1916.8567 
   68700    298.43439   -1167.5922    6470.8321    11678.833    1929.1575 
   68800     298.4942   -1161.9543    6329.3235     11544.24    1904.7103 
   68900     303.4606   -1168.1375    6389.1976     11704.03    1910.6387 
   69000     296.3079   -1164.8534     6490.286    11655.596    1925.7427 
   69100    299.54567   -1162.5205    6378.8941    11615.707     1867.287 
   69200    300.73385   -1157.2095    6393.0656    11660.573    1917.4371 
   69300    302.90863   -1163.4496    6473.9885    11781.717    1963.8345 
   69400    302.24544   -1161.2849    6408.0512    11703.776     1893.879 
   69500    297.63455   -1159.9355    6495.2833    11693.853    1881.4651 
   69600    303.70263   -1156.7952    6390.7375    11722.083    1875.5077 
   69700    294.79347   -1155.3829    6415.3268    11557.754    1870.4221 
   69800    297.59399   -1152.5743    6387.6978    11592.763     1901.128 
   69900    301.72958   -1152.5338    6482.5982    11776.054     1856.809 
   70000    298.23151   -1153.1915    6415.5767    11633.644    1858.4972 
   70100    300.71417    -1158.478    6385.4403    11651.259    1900.8527 
   70200    298.67074   -1153.9788    6530.2851    11756.948    1909.2283 
   70300    307.74116   -1158.5471    6486.0438    11901.914    1846.0645 
   70400    301.19523   -1162.5593    6476.2058     11748.22    1887.8174 
   70500    297.52302   -1154.0313    6357.6146    11559.706    1859.4832 
   70600    301.69122   -1159.0008    6446.9519    11733.121    1896.2954 
   70700    298.94564   -1157.6567    6460.6996    11689.558    1888.5384 
   70800    302.48379   -1159.4895    6447.7902    11750.403     1916.588 
   70900    301.60976   -1165.0067     6424.267     11702.69    1875.3374 
   71000    296.39491    -1170.032    6418.6692     11580.66    1865.5557 
   71100    299.60853   -1166.6121    6479.6455     11713.71    1909.6248 
   71200    301.44652   -1175.1143    6367.1515    11631.979    1858.4784 
   71300     296.8551   -1168.8209    6414.9423    11587.975    1788.3179 
   71400    302.67684    -1169.996    6442.4023    11738.633    1867.9429 
   71500    302.28545   -1173.2161     6379.354    11664.003    1887.2791 
   71600     301.8353    -1172.622    6386.6134    11662.239    1851.3433 
   71700      301.705   -1161.8895    6286.3684    11569.943    1851.2758 
   71800    299.64366   -1166.4627    6427.1036    11662.068    1969.7436 
   71900    299.18729   -1163.5027    6378.7739    11606.949    1872.9505 
   72000    298.38231   -1170.7553    6468.2093    11671.934    1934.8263 
   72100    303.99884   -1177.3618    6379.3623    11696.469     1912.126 
   72200    297.58608   -1168.6701    6433.0591    11621.859    1904.4219 
   72300    297.13581   -1172.1388    6484.2617    11659.974    1966.0608 
   72400    306.12505   -1167.0945    6374.0494    11746.847    1929.4303 
   72500    298.00164    -1165.859    6418.3139    11618.803     1904.484 
   72600    303.92468   -1158.2763    6533.1292    11867.737    1963.0022 
   72700    299.80714   -1158.1058    6450.1428    11696.957     1895.172 
   72800    304.77392   -1159.8133    6406.2046    11757.418     1877.007 
   72900    301.73147   -1156.2827    6451.8886    11741.636    1956.5489 
   73000    297.31766   -1160.3161    6406.8221    11598.242    1862.8069 
   73100    301.10995   -1159.0788    6527.5691    11801.242    1906.9055 
   73200    300.78565   -1161.0513    6449.6385    11714.411    1910.3406 
   73300    299.21981   -1156.5039    6478.2051    11714.073    1924.3182 
   73400    299.99073   -1154.8249    6486.5745    11740.591    1898.7522 
   73500    302.67295   -1156.8401    6437.3731    11746.676    1902.3952 
   73600    302.23473   -1158.0757     6416.224     11714.93    1894.2539 
   73700    301.68267   -1156.5912    6463.5949    11751.991    1916.4663 
   73800      299.493   -1155.5054    6482.9935    11725.697    1942.1103 
   73900    304.02932   -1166.0222    6490.5464    11819.644    1892.0649 
   74000    296.61781    -1166.306    6301.1541    11471.633     1761.026 
   74100    306.41142   -1166.4883    6484.2755    11863.797    1894.3428 
   74200    298.59935   -1170.0492     6426.562     11635.63    1938.3391 
   74300    301.04023   -1165.0225    6437.1884    11703.428    1913.9269 
   74400    304.66287   -1171.8941    6380.7856    11717.546    1939.8835 
   74500    295.60804   -1165.5547    6420.5322     11570.19     2000.718 
   74600     301.5544     -1160.02    6356.1073    11638.334    1890.2835 
   74700    296.84064   -1170.6178    6407.0953    11578.022    1892.3431 
   74800    300.78313   -1165.6615    6430.5426    11690.651    1996.2538 
   74900    297.45468   -1174.8575    6403.2406    11583.046    1931.9413 
   75000    303.70765   -1178.8706    6378.5322    11687.909    1881.3614 
   75100    296.43506   -1176.9603    6342.6409    11498.561    1903.3204 
   75200    301.00418    -1175.433    6569.5618    11824.621    1998.6916 
   75300    299.78022   -1172.0432    6464.7997    11697.101    1895.4823 
   75400     300.6034   -1163.2096    6420.1939    11678.915    1957.1348 
   75500     297.6471   -1171.9831    6411.8784    11598.669     1947.962 
   75600    300.98159   -1164.9092    6447.2158    11712.316    1972.7769 
   75700    298.08849   -1169.4257    6330.7267    11529.504    1937.7837 
   75800     305.4993     -1161.79      6402.08    11766.814    1955.2616 
   75900    301.16277   -1168.7222    6539.7156    11804.874     1891.887 
   76000    293.17549   -1166.6447    6519.1465    11615.746     1875.928 
   76100    294.90757   -1164.3414     6454.523    11590.429    1908.2407 
   76200    301.64842   -1159.0026    6372.5796    11657.833    1850.5167 
   76300    300.33631   -1158.0136    6468.4038    11726.615     1881.448 
   76400    295.56185   -1156.6417    6405.0304    11562.614    1885.0086 
   76500    302.70361   -1152.9969    6464.4619    11778.263    1909.0028 
   76600    297.32608   -1155.8977    6494.4214    11690.439    1901.6234 
   76700    301.76152   -1152.5131    6434.6862    11728.845    1920.8035 
   76800    296.28094   -1152.8476    6362.1506    11538.891      1877.24 
   76900      302.627   -1153.8804    6418.8831    11730.164    1901.0201 
   77000    298.60938   -1159.7757    6501.7709    11721.326    1916.7222 
   77100    300.21638   -1158.6233    6416.5574    11671.596    1818.7314 
   77200    297.64612   -1155.2411    6551.2545    11754.766    1896.7184 
   77300    302.44093   -1159.4778    6416.8624    11718.571     1843.673 
   77400    300.43972   -1160.2566    6310.0543    11568.231    1808.6673 
   77500    298.75593   -1158.3372    6356.7798    11580.905    1873.4014 
   77600    303.18806   -1157.0529    6535.4641    11855.559    1961.0484 
   77700    301.83605   -1157.0988    6415.2188    11706.384    1909.0091 
   77800    293.99898   -1164.6452    6392.8302    11509.022    1889.8931 
   77900    303.11495    -1163.008    6434.4048    11746.983    1908.7622 
   78000    298.45264    -1168.019    6450.0241    11657.988    1897.8669 
   78100    302.62828   -1170.5782    6417.4471    11712.058      1880.79 
   78200     301.6324   -1173.3308    6373.2544    11643.837    1810.6785 
   78300    296.22497   -1170.5631    6456.4781    11614.307    1888.8738 
   78400     300.1808   -1167.1596     6341.791    11587.534    1836.4327 
   78500    302.31407   -1163.5126     6471.534    11766.498    1970.3549 
   78600    295.93568   -1167.6351    6356.3477    11510.924    1930.9512 
   78700    297.39021   -1158.0824    6432.3626    11627.566    1895.5025 
   78800    303.43287    -1167.298    6322.5827    11637.662    1889.1769 
   78900    295.82774   -1170.9534    6442.9964    11591.949    1971.5151 
   79000    296.13897   -1169.1608    6427.0687    11584.463    1845.2712 
   79100    298.83558   -1169.4528    6457.8907    11672.602     1874.937 
   79200    302.70285   -1167.2974    6463.1314    11762.616    1909.7874 
   79300     302.2214   -1166.2035    6395.0991    11685.392    1866.4917 
   79400       307.01   -1165.8124    6455.7088    11848.694    1912.4246 
   79500     301.5697   -1158.9652    6389.4037    11673.012    1862.3787 
   79600    294.18876   -1157.0299    6353.1392    11481.001    1843.7291 
   79700    295.91885   -1160.2333    6441.2456    11602.864    1844.4872 
   79800    300.72919     -1161.18    6512.6571    11776.095    1863.1894 
   79900    301.89508    -1157.013    6454.3548    11746.867    1892.4116 
   80000    294.16391   -1160.8465    6354.4895    11478.003    1824.2981 
   80100    305.74749   -1157.8986    6430.1174    11804.045     1815.943 
   80200     299.9984   -1157.2842    6519.9088     11771.63    1897.7811 
   80300    298.70068   -1159.5319    6370.8136    11592.563    1897.3225 
   80400    302.84168   -1159.8466    6384.0957    11693.997    1878.7154 
   80500    298.67838   -1158.4688    6496.6721    11719.008    1905.5391 
   80600     300.2493   -1159.7418    6454.4553    11709.079    1942.3557 
   80700    302.07912   -1159.7833    6348.6784    11642.352    1853.2284 
   80800     303.2117   -1158.3863    6382.9398    11702.206    1896.6331 
   80900    300.54265   -1155.3017    6372.3243    11637.655    1912.1341 
   81000    298.74564     -1156.08    6402.2831    11628.445    1891.8549 
   81100    306.05621   -1160.2321    6379.8954    11758.085    1921.7738 
   81200    299.03337   -1166.8905     6373.991     11595.49     1932.488 
   81300    299.32144   -1168.7859    6341.2132    11566.971    1889.5164 
   81400    298.58705   -1169.1831    6490.2858    11699.957    1889.6632 
   81500    309.42217   -1166.1165    6457.9741    11902.188    1830.4512 
   81600    302.25979   -1170.3252    6456.1207    11743.112    1816.3472 
   81700    293.59574   -1171.6031    6395.6362    11496.256    1827.2192 
   81800    302.57019   -1169.1619    6376.5294    11671.315     1863.396 
   81900    297.86397   -1162.8917    6429.3404    11629.855    1897.5693 
   82000    298.76624   -1163.4598    6383.0906    11602.313    1901.5015 
   82100     301.5348   -1168.0911     6275.998    11549.735    1762.0493 
   82200    299.23708   -1170.1143     6547.516    11770.143    1833.7548 
   82300    300.71052   -1169.4304    6514.8977    11769.686    1830.5754 
   82400    301.02092   -1171.0238    6424.9878    11684.814    1813.3219 
   82500    297.68475   -1168.9673    6352.5806    11543.191    1841.4212 
   82600    304.58981   -1166.4682    6508.9348     11849.56    1934.7782 
   82700    296.45239   -1164.6182     6508.402    11677.034    1869.8718 
   82800    302.78079   -1157.1612    6485.5173    11796.803    1906.6916 
   82900    297.18261   -1169.9789     6223.058     11401.93    1826.9685 
   83000    293.35704   -1162.4447    6426.7653    11531.444    1902.2869 
   83100    301.77288   -1161.4871     6418.948    11704.375    1897.9222 
   83200    296.25378   -1159.1159    6432.3461    11602.238     1888.744 
   83300    301.45519    -1161.292     6472.645     11751.48    1917.3855 
   83400    298.54934   -1158.3549    6429.9576    11649.651    1889.1714 
   83500    299.57979   -1160.2367    6481.3049    11721.131    1928.9178 
   83600    299.10639    -1161.703    6389.2544      11617.5    1897.4084 
   83700    296.70277    -1162.154     6296.773    11473.218    1826.1119 
   83800    302.10206    -1155.434    6493.6679    11792.181    1952.2423 
   83900    301.01243   -1161.0742    6412.7347    11682.329    1919.1747 
   84000    301.94394   -1158.1962    6357.2449    11649.618    1872.1417 
   84100    299.43189    -1160.006    6516.7941    11753.691    1907.5462 
   84200    298.75279   -1166.4967     6408.456    11624.354    1903.2283 
   84300    304.49884   -1165.2255    6365.6365    11705.561    1836.1076 
   84400    296.50384   -1165.7995     6414.281    11582.831    1804.5571 
   84500    304.39661     -1166.16    6476.4205    11813.227    1901.8566 
   84600    303.32208   -1165.3395    6453.0066    11767.678    1826.2646 
   84700    296.00681   -1165.9766    6423.2626    11581.017     1833.946 
   84800    298.79755   -1166.7867    6306.7164    11523.281    1888.1771 
   84900    301.06058   -1163.7313    6375.1675    11643.134    1856.2431 
   85000    297.91508   -1159.6517    6492.4284    11697.275    1914.0176 
   85100    301.14359   -1164.6167    6454.5261     11723.38    2001.8628 
   85200    300.68779   -1171.4438    6406.0245    11658.314    1994.0161 
   85300    297.66645   -1170.4853     6340.277    11528.979    1916.6465 
   85400    299.97724   -1166.8215    6420.0452    11661.777    1936.3792 
   85500    301.30489    -1166.219    6455.3986    11726.096    1955.4933 
   85600    298.70041    -1163.559    6408.1783    11625.895    1907.7339 
   85700    299.64543   -1163.1975    6427.7216    11665.989    1919.1268 
   85800    302.54571   -1169.9043    6309.0117    11602.532    1917.5397 
   85900    298.96689   -1166.5539    6429.9968    11650.412    1916.2767 
   86000    302.26015    -1159.246    6554.4124    11852.491    1904.4847 
   86100    297.87285   -1163.4812    6424.2175    11624.333    1858.8311 
   86200    298.84695   -1164.1395    6401.9262    11622.193    1916.6199 
   86300    303.06897    -1163.927    6354.2054    11664.882    1880.2018 
   86400    298.63073   -1157.0411    6442.1145    11664.861    1881.5785 
   86500    301.18711   -1159.8109    6442.9668    11717.556    1829.7253 
   86600    308.50366   -1162.9322    6484.2069    11911.982    1877.8821 
   86700    299.04934   -1157.9885    6490.9003    11721.642    1875.3572 
   86800    298.41002   -1156.0612       6368.8    11587.811    1848.2506 
   86900    300.68277   -1159.0116    6443.5275    11708.142    1877.4247 
   87000    305.06635    -1159.126    6448.5454    11806.694    1933.5346 
   87100    300.09255   -1161.5778    6342.2915    11591.731    1861.0697 
   87200    298.00746   -1157.6491    6465.5964    11674.419    1916.3409 
   87300    302.19115   -1161.1472    6487.6784    11782.381     1885.102 
   87400    299.30655   -1156.5417    6475.4912    11713.175    1903.4161 
   87500    295.64617   -1164.1542    6364.1998    11516.072    1868.2237 
   87600    301.22978   -1159.8034    6425.0517     11700.56    1932.1966 
   87700    298.66306   -1163.1178    6406.1259    11623.486    1868.0939 
   87800    295.90528    -1163.024    6443.8793    11602.418    1845.0074 
   87900     302.6493    -1168.277    6358.5036    11655.864    1841.2241 
   88000    299.28188   -1166.1478    6355.3231    11582.873     1845.816 
   88100    295.98572   -1163.2018    6465.5841    11625.663    1840.9045 
   88200    303.34613   -1162.6736    6454.0856    11771.937     1857.108 
   88300    300.75085   -1166.9296    6385.4783    11643.629    1903.9752 
   88400    302.31892    -1168.248    6337.8096    11628.141    1866.1225 
   88500    297.91665    -1165.219    6404.3043    11603.618    1847.7484 
   88600    300.07806   -1168.1052    6408.0674    11650.669    1871.4348 
   88700    301.30801   -1169.9835    6452.5058    11719.506    1845.7276 
   88800     299.3043   -1166.4005    6436.6982    11664.475    1831.0764 
   88900    300.27819   -1165.1913    6341.5756    11591.367     1863.574 
   89000    298.56856   -1172.0033    6418.3063    11624.762    1835.4796 
   89100     300.8086   -1159.8436    6498.9902    11765.461    1853.1032 
   89200    297.91141   -1164.1215    6331.7744    11532.073    1832.2999 
   89300    304.12136    -1163.643    6301.9955    11635.439    1863.4623 
   89400    298.79248   -1165.6288    6378.9019    11596.516    1841.0419 
   89500     300.3779   -1166.3494    6478.5779    11729.341     1864.487 
   89600    300.14501   -1172.8891    6483.0286    11722.277    1870.3743 
   89700    298.61169   -1163.3018    6564.4247    11780.503    1856.4576 
   89800    301.95895   -1168.7319    6359.7414    11641.899    1779.4471 
   89900    297.11831   -1160.9613    6384.8536    11571.369    1862.0431 
   90000    303.12927    -1164.262    6395.0051    11706.635    1863.2815 
   90100    298.98621   -1158.9543    6473.6679    11702.095    1907.6767 
   90200    301.83654   -1157.2551    6334.5799    11625.599    1838.3479 
   90300    302.68522   -1156.8567    6454.1874    11763.736    1903.6872 
   90400    297.42004    -1158.913    6493.2665    11688.276    1888.5807 
   90500    301.52319    -1157.471    6380.3795    11664.489    1876.4118 
   90600    298.61516   -1158.2036    6442.9216    11664.173     1931.964 
   90700    301.40738   -1160.6686    6378.0564    11656.494    1899.2077 
   90800     296.2297   -1161.4694    6480.6225    11647.646    1833.7201 
   90900    301.80218   -1159.3039    6428.9341    11717.171    1867.9407 
   91000    300.79822   -1167.2717    6404.4565    11663.277     1892.227 
   91100    299.20447   -1156.3868    6444.5889    11680.247     1841.393 
   91200    300.56472   -1153.2344    6322.3104     11590.18    1806.5026 
   91300    303.01503    -1159.971    6393.8538    11707.334    1860.8992 
   91400    300.57152   -1161.5726    6448.9641    11708.641    1871.3651 
   91500    305.36662   -1164.2725    6367.6105    11727.027    1880.0977 
   91600    298.98687   -1168.2919    6453.0594    11672.163    1953.3763 
   91700    303.80098   -1164.2277    6400.9072    11726.921    1834.1115 
   91800    298.56347   -1164.7025    6483.4911    11697.139    1897.1445 
   91900    299.76062   -1167.7962     6497.723    11733.852    1916.6887 
   92000    302.87272   -1168.6157    6386.3846     11688.18    1846.3917 
   92100    303.04924   -1164.6513    6306.5608    11616.092    1859.9506 
   92200    302.11595    -1163.309    6461.5874    11752.522    1979.5971 
   92300    297.20228   -1159.8334    6387.5642    11577.001    1837.3316 
   92400    302.50901   -1161.8097    6472.0647    11772.896    1893.0075 
   92500    298.31268    -1161.617    6343.0893    11554.465    1836.0548 
   92600    298.49242   -1167.9231    6541.9538    11750.863    1912.5932 
   92700    302.75579   -1166.4191    6493.7165     11795.21    1863.7353 
   92800    298.38627   -1166.0337    6339.2324    11547.764    1853.6714 
   92900    299.58452   -1164.4005    6423.7614    11659.524    1936.7896 
   93000    300.25778   -1164.8311    6377.6236    11627.339    1802.9542 
   93100    299.39098   -1166.3898    6469.6178    11699.257    1854.4492 
   93200    297.30272   -1161.8597    6470.8626    11660.419    1866.5317 
   93300    299.50802   -1157.7441    6485.4158    11726.201    1873.7297 
   93400    300.65359   -1162.4696    6341.5749    11602.108    1854.0865 
   93500    300.63687   -1169.6775    6381.9821     11634.95    1891.8367 
   93600     296.6433   -1158.1117    6512.6488    11691.866    1911.8421 
   93700    299.08133   -1158.2514     6419.473    11650.635    1880.4359 
   93800    306.29472   -1161.2343    6403.7114    11785.994    1929.4735 
   93900    298.07657    -1163.505    6405.3742    11609.818    1974.1071 
   94000    298.12245   -1161.4116    6358.2192    11565.736    1937.9251 
   94100    301.52219   -1162.1915    6355.4846    11634.852    1882.7053 
   94200    300.21092   -1164.2835    6503.3062    11752.568    1878.6462 
   94300     298.5722   -1166.7014    6522.4347     11734.27    1898.1202 
   94400    299.50591   -1161.3261    6415.8976    11653.056    1924.9522 
   94500     301.5382   -1166.3732    6355.5778    11631.106    1947.0877 
   94600    298.17562   -1162.8374     6446.613     11653.84    1987.8536 
   94700     302.6005   -1164.0393    6354.0178    11654.574    1900.2781 
   94800    300.61572   -1158.4375    6370.2613    11634.017    1924.0192 
   94900    299.04179   -1163.2267    6490.5921    11715.934    1924.5374 
   95000    304.21503   -1166.2223    6440.1071    11772.972    1811.4905 
   95100    300.84873    -1163.317    6424.1098    11687.964    1837.8747 
   95200      299.024   -1169.6837    6408.2135    11626.719    1820.0789 
   95300    301.44397   -1162.2675    6544.0094     11821.63    1863.8105 
   95400    296.76357   -1172.7097    6471.8904    11639.079    1823.7587 
   95500    304.63596   -1167.0821    6316.1174    11657.115    1852.3382 
   95600    298.82511   -1161.0988    6474.2045    11697.046    1923.8949 
   95700    301.17135   -1160.9653    6465.3255    11738.424    1933.2032 
   95800    297.97446   -1160.4875    6284.3757    11489.655    1872.1288 
   95900    301.79495   -1160.2808    6473.8641    11760.969    1930.4967 
   96000    298.35758   -1162.6746    6485.7762    11697.053    1908.4557 
   96100    299.37349   -1166.1228    6329.2394    11558.772    1871.7375 
   96200     299.8044   -1168.9478    6305.4903    11541.403    1849.7033 
   96300     297.9026   -1169.5445    6563.8053    11758.493    1892.9452 
   96400    305.18041   -1161.7587    6505.2627    11863.215    1897.7329 
   96500    293.95751   -1161.8358    6348.5302    11466.646    1842.0589 
   96600    297.81498   -1157.8056    6377.9903    11582.545    1877.9252 
   96700    303.68503   -1158.9779    6499.3681    11828.155    1945.6526 
   96800    293.98074    -1154.946    6458.8506    11584.352     1936.122 
   96900    300.31081   -1157.9223    6401.3564    11659.114    1861.3469 
   97000    302.62671   -1163.0371    6402.1809    11704.299    1887.2353 
   97100    297.24002   -1163.5769    6392.5769    11579.077    1928.8887 
   97200    303.67326   -1165.0735    6407.9203     11730.36    1878.3521 
   97300    295.15628   -1167.5458    6488.9926    11627.008    1913.5489 
   97400     300.3967   -1167.1439    6441.6074    11691.978    1969.4467 
   97500     300.6128   -1161.5062    6308.0146     11568.64    1874.3088 
   97600    301.70152   -1162.6308    6412.2689    11695.028    1856.7048 
   97700    301.18935   -1164.5668    6448.8404    11718.722    1924.7748 
   97800    299.96461   -1160.8354    6547.9977    11795.446    1931.4504 
   97900     298.8016    -1162.219    6369.1442    11590.363    1820.9143 
   98000    295.21606   -1167.8232    6330.7695    11469.784    1904.0527 
   98100    304.25515   -1170.6322    6324.5889    11653.901    1872.8339 
   98200    299.11731   -1168.4084    6482.7194    11704.493    1901.7874 
   98300    298.47015   -1165.6232    6546.2146    11756.948    1919.7057 
   98400    303.56855   -1168.6475    6377.1869    11693.816    1863.0065 
   98500    297.89664   -1170.8908     6348.226     11541.44     1815.776 
   98600    303.10439   -1168.2859    6480.1315    11787.206    1896.6497 
   98700    298.82549    -1164.509     6393.223    11612.662    1954.0186 
   98800    302.16901   -1163.2422    6354.4869    11646.622    1923.8491 
   98900    300.47459    -1166.453    6506.7969    11759.522    1928.0022 
   99000     296.9485   -1172.6668    6404.1123    11575.295    1908.7963 
   99100    301.66221   -1171.4944    6472.5935    11745.649    1959.2765 
   99200     298.3247   -1168.6044    6378.3027    11582.948    1884.4993 
   99300    301.71411   -1162.3239     6483.438    11766.773    1912.5165 
   99400    299.30785   -1162.9347    6507.1357    11738.454     1957.047 
   99500    301.42594    -1159.734    6387.3293    11667.098    1956.3612 
   99600    303.49969   -1159.5678    6425.3813    11749.619    1947.1399 
   99700    298.69268   -1164.3684    6418.3733    11635.116    1893.7895 
   99800     303.1196   -1160.4342      6490.35    11805.601    1940.5029 
   99900    297.44643   -1165.0385    6587.5904    11777.039     1969.834 
  100000    299.77989   -1167.5413    6324.0442     11560.84    1904.0358 
  100100    303.48917   -1167.0099    6364.3644    11680.935    1969.9384 
  100200    296.69837   -1164.7332    6558.4699    11732.242    1953.4034 
  100300     301.9337   -1157.8673    6373.5436    11666.027    1892.4729 
  100400     302.6429    -1160.158    6258.0702    11563.413    1838.2032 
  100500    298.31765   -1160.4642    6486.4443    11699.079    1887.1517 
  100600    300.38366   -1156.4501    6587.9009    11848.687    1977.0193 
  100700    303.03841   -1162.7174    6310.2142    11621.447     1904.326 
  100800    301.31867   -1163.0995    6239.9896    11514.101    1831.6181 
  100900    295.22638   -1162.5647    6518.7271    11663.221     1941.189 
  101000    301.49131   -1167.9668    6519.1219    11792.054    1984.0952 
  101100    299.60955   -1171.9926    6352.8938    11581.599    1845.2967 
  101200    297.46453   -1164.6685    6488.6738    11678.879    1884.6115 
  101300    295.73848   -1160.7492    6493.7795    11651.029       1947.9 
  101400    303.97788   -1161.0183    6450.2878    11783.291    1905.3465 
  101500    297.61131   -1164.2529    6397.2524    11591.008     1845.734 
  101600    299.28976   -1164.8312    6472.0721    11701.107    1937.1234 
  101700     306.6072   -1165.4416    6380.9158    11765.666    1890.6248 
  101800    300.57283    -1167.167    6388.4778    11642.588    1870.7243 
  101900    301.49603   -1169.0873    6533.3987    11805.311    1921.3727 
  102000    299.29489   -1165.5548    6480.3753    11708.797    1882.4556 
  102100    296.11125   -1165.4198     6407.274    11567.817    1842.4528 
  102200    303.48289   -1166.0681    6462.1926    11779.571    2000.4024 
  102300    303.07697   -1159.3525    6420.5603    11735.982    1880.3635 
  102400    299.39719   -1161.2698     6442.801    11677.693    1883.6617 
  102500    299.05318   -1150.6159    6412.0453    11650.242    1992.2092 
  102600    299.58252   -1161.9403     6386.068    11624.249    1970.6823 
  102700    299.36101   -1169.8402     6483.507    11709.055    1875.0844 
  102800    300.51035   -1169.2123    6484.8611    11735.591    1890.5461 
  102900    299.15462   -1169.2775    6462.0415    11683.743    1896.0927 
  103000    302.73702   -1167.1999    6422.8052    11723.117    1905.6676 
[...]
  588400    301.72736   -1164.9563    6396.6861    11677.672    1816.2456 
  588500    298.06854    -1159.763    6469.6772    11677.691    1814.2987 
  588600    301.79272   -1167.5324    6397.8983    11677.704    1804.4978 
  588700    301.44506    -1166.778    6404.5166     11677.65     1855.498 
  588800    297.90154     -1165.76    6479.1933    11677.643    1865.7598 
  588900    301.59664   -1164.7113    6399.2893    11677.727    1890.2148 
  589000    303.61945   -1166.8792    6358.2204    11677.705    1890.0492 
  589100     295.5744   -1155.9795    6519.1941    11677.708    1878.3249 
  589200    304.72705   -1165.5498    6333.2059    11677.682    1860.4642 
  589300     299.6651   -1166.1292    6441.9797    11677.735    1931.6152 
  589400    297.75646   -1159.2604    6475.8545    11677.704    1904.0316 
  589500    303.21309   -1164.4292    6364.4792    11677.733    1857.7582 
  589600    299.48228   -1163.8354    6443.6879    11677.832     1914.292 
  589700    298.84487   -1165.8875    6459.3123    11677.787    1933.4502 
  589800    299.36148    -1161.799    6444.1437    11677.743     1888.796 
  589900    297.51546   -1162.4976    6484.2122    11677.676     1870.909 
  590000    299.04322    -1163.012    6452.1485    11677.736    1859.0184 
  590100    299.32828   -1160.5053    6443.5488    11677.733    1901.5805 
  590200    300.04045   -1162.8431    6430.6446    11677.705    1926.5327 
  590300    298.91707   -1160.8793    6452.6497    11677.675    1926.0481 
  590400    300.10385    -1159.807    6426.2181    11677.669    1890.7912 
  590500    302.77778   -1163.1977    6372.4626    11677.648    1884.5276 
  590600    296.01131   -1166.2346    6520.0485    11677.641    1928.4867 
  590700    301.97929   -1159.4301    6385.8367    11677.731    1881.0935 
  590800    301.17054   -1159.2375    6402.9291    11677.738     1826.732 
  590900    301.70803   -1157.6462    6389.8762    11677.759    1848.2024 
  591000    297.72182   -1162.7192    6480.0905    11677.741    1856.2269 
  591100    301.71906   -1161.4044    6393.3549    11677.715    1836.3571 
  591200    302.11815   -1166.5015    6389.9948    11677.784    1843.4877 
  591300    298.56876   -1158.5894    6457.9102    11677.784    1868.5061 
  591400    301.40559   -1157.8503    6396.5347    11677.752    1880.3824 
  591500     301.0369   -1159.8892     6406.395    11677.697    1858.9496 
  591600    296.56371   -1159.5031    6501.6269    11677.752    1931.8249 
  591700    301.91068   -1156.8624      6384.73    11677.726    1950.3077 
  591800    302.05431   -1162.2202     6387.022    11677.729    1885.7153 
  591900    296.57186   -1165.9482    6507.9682    11677.823    1938.4311 
  592000    304.76231   -1160.2276    6327.2495    11677.801    1842.4127 
  592100    297.10247   -1160.1555    6490.8455    11677.828    1868.3321 
  592200    299.01143   -1161.1904    6451.0273    11677.757    1867.2818 
  592300    298.16911    -1160.518    6468.4098    11677.817    1905.4319 
  592400    300.81776   -1166.9773    6418.1799    11677.712    1884.2226 
  592500    302.14237   -1163.3281    6386.1759    11677.656    1889.1729 
  592600    300.74175   -1166.4843    6419.2897    11677.691    1923.2544 
  592700    298.10652   -1161.4816    6470.5986    11677.705      1885.23 
  592800    302.20234   -1153.7451    6375.2783    11677.622     1900.087 
  592900    298.59575   -1166.5823    6465.2198    11677.678    1909.8643 
  593000    299.46532   -1163.6001    6443.6833      11677.7    1910.6553 
  593100    296.69444   -1160.7123    6500.0524    11677.761    1911.8469 
  593200    300.78553   -1158.5738    6410.4711    11677.719    1913.8211 
  593300    299.59061     -1159.12    6436.5361     11677.71    1969.0576 
  593400     301.1126   -1160.2522    6405.1793    11677.736    1906.9762 
  593500    302.19104   -1160.3698    6382.1988    11677.677      1938.99 
  593600    301.83871   -1159.4064    6388.8088    11677.723    1876.1372 
  593700    298.83693    -1152.237    6445.7866    11677.742    1875.8884 
  593800      297.593   -1160.8931    6481.0631    11677.788    1943.9462 
  593900    301.19787   -1162.4355    6405.5338    11677.729    1894.2349 
  594000     299.5808    -1163.454    6441.1326    11677.763    1896.6203 
  594100    298.08336   -1164.4721    6474.1546    11677.776    1848.3878 
  594200    301.67306   -1164.6055     6397.538    11677.715    1854.6097 
  594300    297.94855   -1165.2279    6477.7096    11677.695    1910.2364 
  594400    299.29559   -1157.8439    6441.6065    11677.754    1857.9706 
  594500    300.64722   -1166.2251    6421.1024    11677.744    1875.0791 
  594600    298.19682   -1159.9118    6467.1038     11677.71    1903.8376 
  594700    302.94536   -1159.5312    6365.3975    11677.829    1870.1969 
  594800    299.10998   -1163.3914    6451.1745    11677.809    1839.2101 
  594900    302.16116   -1167.0064    6389.6151    11677.818    1857.6217 
  595000      298.905   -1166.5105    6458.7373    11677.873    1875.8777 
  595100    302.62716    -1169.423    6382.1155    11677.857    1875.1619 
  595200    296.73398   -1161.9506    6500.5408    11677.856    1947.9149 
  595300    301.80353   -1160.2604    6390.4455    11677.754    1858.7702 
  595400    300.96818   -1159.2831    6407.2766    11677.717    1859.2443 
  595500    301.10183   -1160.4412     6405.641    11677.778    1906.8797 
  595600    300.31356   -1164.8144    6426.7564     11677.68    1880.0269 
  595700    304.42952    -1164.662    6338.7395    11677.747    1895.8731 
  595800    299.99244   -1164.7471    6433.6332    11677.764    1938.3669 
  595900    300.55634   -1167.7551    6424.5611    11677.731     1910.171 
  596000    300.68892   -1169.4787    6423.4307    11677.709    1832.7251 
  596100    299.33821   -1164.2108    6446.9832    11677.674    1887.7435 
  596200     302.8599   -1162.5599    6370.0866    11677.664    1943.6766 
  596300    299.58148   -1163.5321    6441.0489    11677.615    1870.5458 
  596400    298.82425   -1158.5355    6452.2072    11677.593    1856.7098 
  596500    298.67787   -1164.1616    6461.0575     11677.69    1869.3689 
  596600    303.03463   -1159.8486    6363.6096    11677.631     1883.717 
  596700    300.78313   -1163.8333    6415.6436     11677.58    1817.9289 
  596800    297.70056   -1166.8034    6484.5444    11677.657    1877.2436 
  596900    299.42875   -1163.2276    6444.1376    11677.746    1878.5126 
  597000     302.7156   -1160.5307    6371.0891    11677.613    1873.9339 
  597100    298.44795   -1154.8642    6456.6167    11677.635    1885.5041 
  597200    296.42005   -1159.3566    6504.4951    11677.698    1854.5204 
  597300    303.31322   -1162.8036    6360.6861    11677.704    1812.5781 
  597400    300.20786   -1159.7788    6424.0061    11677.708    1919.5957 
  597500        301.3   -1162.8915    6403.8105    11677.731    1883.6759 
  597600    298.31224   -1170.7386    6475.5075    11677.752    1828.4658 
  597700     298.2622   -1171.6471    6477.5145    11677.782    1907.1036 
  597800    298.87936   -1168.4528    6461.1488    11677.795    1877.2969 
  597900    299.20727   -1168.6347    6454.3654    11677.835    1868.6776 
  598000    301.32167   -1162.4389    6402.9747    11677.811    1845.6115 
  598100    298.29448   -1164.5966    6469.8028     11677.81    1867.1186 
  598200    303.38115   -1158.1291    6354.6308    11677.775    1856.5611 
  598300    302.90604   -1159.0318    6365.6884    11677.779    1896.8364 
  598400    299.19618   -1166.0188    6451.9897    11677.838    1893.9087 
  598500    300.33695   -1166.6052    6428.1146    11677.748    1835.8791 
  598600    300.03172   -1168.5118    6436.6203    11677.826    1858.3716 
  598700    300.31915   -1168.0164    6429.9282     11677.77    1896.3537 
  598800    299.23609    -1166.646    6451.6801    11677.754    1899.5253 
  598900    303.96879   -1166.5639    6350.3635    11677.626    1893.9766 
  599000    300.94028   -1161.1417    6409.7511    11677.737    1927.1908 
  599100    297.78357   -1161.9931    6478.0597    11677.756    1858.4556 
  599200    300.97937   -1161.3553    6409.1054    11677.713    1830.6858 
  599300    300.44132   -1156.8023    6416.0428    11677.708    1925.5223 
  599400    301.77254   -1160.6945    6391.4738    11677.687    1907.5296 
  599500    298.16654   -1156.5922     6464.351     11677.63    1882.0713 
  599600    297.40527   -1158.2104    6482.2275    11677.624    1868.8628 
  599700     299.0462   -1156.5488     6445.463    11677.577    1869.5935 
  599800    300.79342   -1159.3755    6410.9282    11677.543    1857.1536 
  599900    301.05098   -1155.8303    6401.9067    11677.569    1871.6314 
  600000    300.51876   -1153.5894    6410.9852    11677.518    1876.2215 
Loop time of 279.767 on 8 procs for 300000 steps with 7168 atoms

Pair  time (%) = 138.089 (49.3585)
Bond  time (%) = 81.0348 (28.9651)
Neigh time (%) = 19.5536 (6.98925)
Comm  time (%) = 30.9126 (11.0494)
Outpt time (%) = 0.485656 (0.173593)
Other time (%) = 9.6916 (3.46417)

Nlocal:    896 ave 907 max 884 min
Histogram: 1 0 0 0 4 1 0 1 0 1
Nghost:    2852.25 ave 2860 max 2835 min
Histogram: 1 0 0 1 0 1 0 0 2 3
Neighs:    23572.5 ave 24234 max 23171 min
Histogram: 1 1 3 0 0 2 0 0 0 1

Total # of neighbors = 188580
Ave neighs/atom = 26.3086
Ave special neighs/atom = 157.056
Neighbor list builds = 3045
Dangerous builds = 0
# −−−−−−−−−−−−−− Flux calculation in nve −−−−−−−−−−−−−−−
reset_timestep  0
compute         PE all pe/atom
compute         KE all ke/atom

variable        CX atom (vx*(c_KE+c_PE))
compute         Jcx all reduce sum v_CX

variable        CZ atom (vz*(c_KE+c_PE))
compute         Jcz all reduce sum v_CZ

variable        CY atom (vy*(c_KE+c_PE))
compute         Jcy all reduce sum v_CY

compute         SA all stress/atom virial

variable        VX atom -(c_SA[1]*vx+c_SA[4]*vy+c_SA[5]*vz)*1.4593e-5
compute         Jvx all reduce sum v_VX

variable        VZ atom -(c_SA[3]*vz+c_SA[6]*vy+c_SA[5]*vx)*1.4593e-5
compute         Jvz all reduce sum v_VZ

variable        VY atom -(c_SA[2]*vy+c_SA[6]*vz+c_SA[4]*vx)*1.4593e-5
compute         Jvy all reduce sum v_VY

variable        Jx equal (c_Jcx+c_Jvx)/vol
variable        Jz equal (c_Jcz+c_Jvz)/vol
variable        Jy equal (c_Jcy+c_Jvy)/vol

fix             JJTx all ave/correlate $s $p $d                 v_Jx type auto file J0Jt_tx.dat ave running
fix             JJTx all ave/correlate 5 $p $d                 v_Jx type auto file J0Jt_tx.dat ave running
fix             JJTx all ave/correlate 5 20000 $d                 v_Jx type auto file J0Jt_tx.dat ave running
fix             JJTx all ave/correlate 5 20000 100000                 v_Jx type auto file J0Jt_tx.dat ave running

fix             JJTz all ave/correlate $s $p $d                 v_Jz type auto file J0Jt_tz.dat ave running
fix             JJTz all ave/correlate 5 $p $d                 v_Jz type auto file J0Jt_tz.dat ave running
fix             JJTz all ave/correlate 5 20000 $d                 v_Jz type auto file J0Jt_tz.dat ave running
fix             JJTz all ave/correlate 5 20000 100000                 v_Jz type auto file J0Jt_tz.dat ave running

fix             JJTy all ave/correlate $s $p $d                 v_Jy type auto file J0Jt_ty.dat ave running
fix             JJTy all ave/correlate 5 $p $d                 v_Jy type auto file J0Jt_ty.dat ave running
fix             JJTy all ave/correlate 5 20000 $d                 v_Jy type auto file J0Jt_ty.dat ave running
fix             JJTy all ave/correlate 5 20000 100000                 v_Jy type auto file J0Jt_ty.dat ave running

run             1000000
Memory usage per processor = 13.8919 Mbytes
Step Temp E_pair E_mol TotEng Press 
       0    300.51876   -1153.5894    6410.9852    11677.518    1876.2215 
     100    299.04921   -1160.0632     6448.738    11677.402    1862.8898 
     200    295.52658   -1154.4285    6518.4496    11677.493    1858.8172 
     300    301.48511   -1159.8809    6396.6647    11677.551     1904.782 
     400    303.81292   -1159.1613    6346.2411    11677.577    1854.8541 
     500    299.35585   -1165.4636    6447.7317    11677.546    1852.6973 
     600    300.13929   -1162.4612     6428.084    11677.638    1858.0553 
     700    302.16426   -1162.3019    6384.6683    11677.642    1800.5648 
     800    298.27772   -1160.2191     6465.679    11677.706    1808.9893 
     900    304.35531   -1153.6826    6329.3362    11677.738    1873.4125 
    1000    300.47988   -1157.9234    6416.3167    11677.685    1930.6598 
    1100    298.99587   -1161.3724    6451.5658    11677.781    1841.8484 
    1200    300.49869    -1161.476    6419.5712    11677.789    1858.2732 
    1300    300.95581   -1168.3402    6416.7569    11677.876    1891.0112 
    1400    303.57233   -1167.4052    6359.8798    11677.832     1900.346 
    1500    297.64636   -1166.7742    6485.8726    11677.856    1899.7068 
    1600    298.26872   -1162.2499    6468.0317    11677.835    1868.7023 
    1700    304.33907   -1171.5505    6347.6026    11677.789    1841.9294 
    1800    297.15192   -1160.7527    6490.4421    11677.884    1896.6058 
    1900    302.80353   -1169.3043     6378.188    11677.816     1861.263 
    2000    298.91654   -1166.8063    6458.7549    11677.842    1891.0532 
    2100    299.03035   -1164.1313    6453.6092    11677.802    1890.1091 
    2200    302.00406   -1168.5123    6394.4557    11677.797    1940.7227 
    2300    300.63256   -1164.4633    6419.6165    11677.707    1901.9529 
    2400    299.71647   -1164.2872    6439.0239    11677.719    1912.0259 
    2500    299.95554   -1163.8828    6433.4679    11677.675     1905.526 
    2600    299.10681    -1167.564    6455.2039    11677.598    1859.2603 
    2700    299.72452   -1163.9419    6438.4105    11677.623     1837.669 
    2800    302.31222   -1168.3505    6387.4955    11677.582     1855.454 
    2900    298.83376   -1163.0238    6456.4688     11677.57    1895.0033 
    3000    297.36418   -1159.1132    6483.9496    11677.566    1855.2908 
    3100    299.68081   -1161.0914    6436.3776    11677.507    1876.5251 
    3200     300.8714   -1157.2759    6407.1018    11677.482    1906.8099 
    3300     301.2641   -1157.0602    6398.5559    11677.541    1882.2683 
    3400    300.06608   -1155.9134    6423.0037    11677.542    1879.2079 
    3500    301.74861   -1163.8443    6395.0264    11677.578    1916.4045 
    3600    298.68946   -1159.2699    6455.7947    11677.567    1892.8229 
    3700    300.96606   -1160.4933    6408.3939    11677.579    1905.6722 
    3800    298.83692   -1160.2311    6453.6474    11677.608    1887.9036 
    3900    298.46937   -1156.9712    6458.2671    11677.636    1920.8872 
    4000     301.1531   -1164.5829    6408.5266    11677.618    1831.5559 
    4100    301.15448   -1158.4908    6402.4975     11677.71    1866.1383 
    4200    304.59176   -1161.5845    6332.1195     11677.67     1892.711 
    4300    298.53274   -1160.6326    6460.6169    11677.678    1922.9964 
    4400    301.93215   -1157.0309    6384.4536     11677.74    1893.1056 
    4500    299.42763   -1167.6764    6448.5896    11677.725    1879.7096 
    4600    297.57072   -1166.1075    6486.7069    11677.741    1880.2843 
    4700    303.57132   -1161.9258    6354.3512    11677.761    1880.6575 
    4800    299.98483   -1163.2072    6432.3551    11677.864    1898.3749 
    4900    299.26491   -1169.7847    6454.2542    11677.805    1907.0904 
    5000    301.33617   -1166.9748    6407.2101     11677.82    1875.4902 
    5100    300.84611   -1164.4603    6415.2268    11677.882    1863.8068 
    5200    301.26993   -1165.5889    6407.1843    11677.765     1886.945 
    5300    300.68121   -1163.4635    6417.7023    11677.831    1904.4184 
    5400     300.8171   -1166.5693    6417.9062    11677.833    1908.1437 
    5500    297.13235   -1161.9962    6492.0953    11677.876    1906.4757 
    5600    300.54208   -1172.2126    6429.5087    11677.917    1844.5862 
    5700    303.07109   -1173.3134     6376.553    11677.888    1800.1208 
    5800    299.66325   -1165.4443     6441.404    11677.805    1809.8445 
    5900    297.58188   -1163.4121    6483.8148    11677.783     1836.859 
    6000    300.44445     -1160.94      6420.15    11677.745    1803.8379 
    6100     303.5445   -1161.8016    6354.7517    11677.713    1920.0915 
    6200    299.79674   -1161.0727    6434.0801    11677.705    1922.3558 
    6300    298.15326   -1162.3264    6470.4054    11677.666    1875.7121 
    6400    299.43028   -1164.4787    6445.3045    11677.694    1919.0606 
    6500    299.53253   -1159.5375    6438.1591    11677.675    1893.3683 
    6600    301.71201   -1164.7972    6396.8059    11677.623    1834.4308 
    6700    301.80452   -1162.2626    6392.3845    11677.713    1852.1999 
    6800    297.61788   -1166.8191    6486.2746    11677.605    1809.9486 
    6900    299.96781   -1160.8982    6430.1464      11677.6    1825.3533 
    7000    301.40044   -1157.4085    6395.8435    11677.393    1800.9727 
    7100    300.20328   -1163.2898    6427.4445    11677.537    1893.5057 
    7200    304.13359   -1157.1445    6337.4006    11677.604    1883.8279 
    7300    295.31467   -1154.2401    6522.8544    11677.559    1846.4083 
    7400    300.47895    -1158.918    6417.2024    11677.556    1833.6733 
    7500    300.22496   -1159.6605     6423.466    11677.651    1902.0377 
    7600    304.74712   -1166.3775    6333.5389    11677.616    1778.8741 
    7700    295.62534   -1161.6996    6523.7536    11677.636    1857.1237 
    7800    298.38287   -1165.5555    6468.7448    11677.681    1889.2314 
    7900    302.81373   -1161.5192    6370.0753    11677.707     1926.104 
    8000    298.27541   -1155.7006    6461.2177    11677.714    1928.9434 
    8100    294.78507   -1161.5094     6541.649     11677.77    1964.6333 
    8200    302.69872   -1162.3317    6373.4154    11677.777    1875.0733 
    8300    298.71719   -1168.1585    6464.3287    11677.805    1889.8551 
    8400    301.34775   -1165.6362     6405.553    11677.749    1908.1111 
    8500    298.75782   -1164.0456    6459.4092    11677.866    1932.0856 
    8600    300.77449   -1168.6008     6420.847    11677.832    1849.3884 
    8700    300.98084   -1166.8789    6414.7946     11677.91    1918.0887 
    8800    297.84695   -1164.8959    6479.6709    11677.818    1856.3898 
    8900    300.19288   -1161.2842    6425.9707    11677.847    1876.9504 
    9000    301.16765   -1166.9521    6410.8185    11677.851    1915.6584 
    9100    299.83658   -1166.9443    6439.2718    11677.876    1938.3731 
    9200    300.01404   -1161.0778    6429.5679     11677.83    1938.9299 
    9300     302.0478   -1164.7613    6389.8898    11677.916    1906.5933 
    9400    300.69777    -1166.582     6420.577    11677.941    1918.9165 
    9500    300.31878   -1167.3758    6429.3935    11677.868    1811.4617 
    9600     297.4013   -1159.6483    6483.8551    11677.729    1856.1322 
    9700    303.90022   -1163.7441    6349.1732    11677.791     1875.843 
    9800    298.81377   -1158.9709    6452.9647    11677.692    1950.0021 
    9900     298.4789    -1157.622    6458.7759    11677.698    1920.5506 
   10000    301.86213   -1153.2433    6382.1144    11677.692    1972.6249 
Loop time of 1424.33 on 8 procs for 1000000 steps with 7168 atoms

Pair  time (%) = 567.581 (39.8489)
Bond  time (%) = 297.794 (20.9076)
Neigh time (%) = 65.4399 (4.59444)
Comm  time (%) = 119.724 (8.40564)
Outpt time (%) = 0.00334769 (0.000235036)
Other time (%) = 373.789 (26.2431)

Nlocal:    896 ave 901 max 888 min
Histogram: 1 0 0 1 1 0 2 0 2 1
Nghost:    2844.38 ave 2853 max 2838 min
Histogram: 2 0 1 1 1 0 2 0 0 1
Neighs:    23620 ave 23955 max 23253 min
Histogram: 2 1 0 0 1 0 1 0 1 2

Total # of neighbors = 188960
Ave neighs/atom = 26.3616
Ave special neighs/atom = 157.056
Neighbor list builds = 10165
Dangerous builds = 0
