LAMMPS (11 Jun 2012)
# Initialization
atom_style      full
units           real
variable        T equal 300
variable        dt equal 1.0
variable        seed equal 123461
variable        radius equal 0.5
variable        sizet equal 4
variable        sizeb equal -4
variable        p equal 20000    # correlation length
variable        s equal 5        # sample interval
variable        d equal $p*$s    # dump interval
variable        d equal 20000*$s    variable        d equal 20000*5    
# convert from LAMMPS real units to SI
variable        kB equal 1.3806504e-23    # [J/K] Boltzmann
variable        kCal2J equal 4186.0/6.02214e23
variable        A2m equal 1.0e-10
variable        fs2s equal 1.0e-15
variable        convert equal ${kCal2J}*${kCal2J}/${fs2s}/${A2m}
variable        convert equal 6.9510174124148567155e-21*${kCal2J}/${fs2s}/${A2m}
variable        convert equal 6.9510174124148567155e-21*6.9510174124148567155e-21/${fs2s}/${A2m}
variable        convert equal 6.9510174124148567155e-21*6.9510174124148567155e-21/1.0000000000000000777e-15/${A2m}
variable        convert equal 6.9510174124148567155e-21*6.9510174124148567155e-21/1.0000000000000000777e-15/1.0000000000000000364e-10
variable        b_eq equal 10.0/3.0

# setup problem
dimension       3
boundary        p p p
neighbor        2    bin
pair_style      lj/cut 10.0
bond_style      morse
read_data       lammps.data
  9 = max bonds/atom
  orthogonal box = (0 0 0) to (80 80 80)
  2 by 2 by 2 MPI processor grid
  7168 atoms
  33696 bonds
  10 = max # of 1-2 neighbors
  86 = max # of 1-3 neighbors
  824 = max # of 1-4 neighbors
  164 = max # of special neighbors
pair_coeff      1 1 0.000 3.500
pair_coeff      2 2 0.000 3.500
pair_coeff      1 2 0.105 3.500
bond_coeff      1 10 1.8 ${b_eq}
bond_coeff      1 10 1.8 3.3333333333333334814
bond_coeff      2 5 0.805 7.4536
bond_coeff      3 10 1.8 ${b_eq}
bond_coeff      3 10 1.8 3.3333333333333334814
bond_coeff      4 5 0.805 7.4536
velocity        all create $T ${seed} mom yes rot yes dist gaussian
velocity        all create 300 ${seed} mom yes rot yes dist gaussian
velocity        all create 300 123461 mom yes rot yes dist gaussian
timestep        ${dt}
timestep        1
thermo          100
dump            T1 all cfg 600000 *.cfg id type xs ys zs
dump            T2 all xyz 10000 traj.xyz
#dump_modify    1 element Cu
# −−−−−−−−−−−−− Equilibration and thermalisation −−−−−−−−−−−−−−−−
fix             NVT all nvt temp $T $T 10
fix             NVT all nvt temp 300 $T 10
fix             NVT all nvt temp 300 300 10
run             300000
Memory usage per processor = 11.5453 Mbytes
Step Temp E_pair E_mol TotEng Press 
       0          300   -906.89526 0.00012694983    5502.1446    343.62551 
     100    241.68358   -934.64221    7082.1116    11310.668    2204.7469 
     200    295.52182   -990.51874    10007.044    15329.896    1202.6367 
     300     304.7397   -988.90196    8439.9988    13961.393     570.9396 
     400    299.00156   -968.15133     6355.561    11775.119    878.01925 
     500    299.55844   -953.67697     5699.806    11145.735    1300.5112 
     600     300.0453    -952.4219    5680.8836    11138.469    1302.2602 
     700    298.90629   -964.70451    6465.5626    11886.532    1211.6577 
     800    294.91178   -976.62574    7113.7548    12437.467    1208.2982 
     900    300.74099   -979.18285    6966.4557    12412.143    1132.9125 
    1000     300.8474   -976.32947    6565.5299    12016.344    1210.1821 
    1100    300.86001   -973.90602    6426.8426    11880.349     1398.827 
    1200    295.74447   -975.02085    6234.2509    11577.357     1214.525 
    1300    301.41508   -981.95569    6342.9672    11800.282    1088.9464 
    1400    295.37402    -988.9614    6713.5049    12034.756    1144.2037 
    1500    296.43818   -993.66029      6927.31    12266.597    1277.4578 
    1600     299.0083   -993.71872    6710.1587    12104.293    1377.0711 
    1700    302.97425   -995.65945    6297.4569    11774.377    1371.6123 
    1800    298.88705   -998.88292    6400.8927    11787.273    1474.5498 
    1900    302.17382   -1004.4047    6563.3369    12014.412    1463.8643 
    2000    298.55059   -1011.1632    6711.9495    12078.862    1399.3762 
    2100    301.54929    -1017.522    6509.5161    11934.132    1477.9243 
    2200    297.85011   -1024.1071    6147.2139    11486.217    1385.9655 
    2300    304.63348   -1036.8673    6290.7136    11761.873     1484.386 
    2400    296.91753   -1051.2643     6489.438    11781.361    1446.7536 
    2500    298.88644   -1065.5069     6681.875    12001.618     1461.415 
    2600    298.69042   -1076.8252    6528.8332    11833.071    1389.7526 
    2700    299.72909   -1092.5485    6331.5324    11642.236    1405.7821 
    2800    299.97214   -1099.7423    6395.2382     11703.94    1585.1017 
    2900    299.13499   -1111.3815    6248.5567    11527.735    1563.2542 
    3000     305.2432   -1116.8892    6156.5756    11560.739    1574.7414 
    3100    294.08741   -1114.5984    6295.9285    11464.056    1536.8797 
    3200     302.3161   -1098.6635    6501.2397    11861.096    1653.6813 
    3300    297.56681   -1094.4873    6253.6567    11516.228    1667.9142 
    3400    302.92632   -1074.6204    6071.7666    11468.702    1803.7327 
    3500    299.45619   -1094.5468    6340.9066    11643.782    1800.4745 
    3600    294.60326   -1106.4818    6606.9281    11794.193    1674.9921 
    3700    300.31926   -1126.2378    6338.8684    11628.491     1580.907 
    3800    300.97863   -1133.2335    6345.0393    11641.752    1705.2334 
    3900    301.85983    -1136.033    6182.7246    11495.464     1702.928 
    4000     300.0833   -1136.2218    6158.0501    11432.647    1712.5719 
    4100    301.10254   -1131.0675    6499.1876    11800.714    1794.3925 
    4200    295.55218   -1124.9374     6437.338     11626.42     1766.473 
    4300    302.96636   -1113.3956    6195.9625    11554.978    1660.2843 
    4400    299.44071   -1109.8587    6257.6799    11544.912    1713.4277 
    4500    298.44466   -1107.1474    6321.8788    11590.544    1717.0681 
    4600    301.72318   -1105.0599    6283.4844    11624.277    1571.1066 
    4700     300.8592   -1102.4036    6608.3632    11933.355    1720.7048 
    4800    297.07435     -1105.23    6566.3538    11807.662    1598.9389 
    4900    297.21562   -1104.3737    6443.9384     11689.12    1613.1968 
    5000    302.01546   -1108.2115     6220.122    11564.007    1658.8704 
    5100    298.24957   -1109.2112    6276.5843    11539.018      1697.51 
    5200    299.46052   -1111.9897    6564.7783    11850.303     1687.469 
    5300    305.52097   -1114.6223    6468.2715    11880.636     1607.906 
    5400    297.77844   -1121.6581     6359.836    11599.757    1673.5297 
    5500    295.85056    -1124.768    6293.6098    11489.235    1707.2329 
    5600     304.0259   -1133.3959    6238.3074    11599.958    1741.6057 
    5700    302.06673   -1139.8712    6356.9413    11670.262    1799.6135 
    5800    298.12645   -1132.1436    6364.4247    11601.295    1669.3932 
    5900    303.09026   -1140.7313    6256.7309    11591.058    1670.4869 
    6000    299.05018   -1134.5274    6371.8736    11626.094    1885.1759 
    6100     298.7549   -1142.6148    6256.2389    11496.064    1777.5599 
    6200    301.03838   -1140.4081    6194.0521    11484.867    1764.6438 
    6300    299.43876   -1146.6799    6373.2857    11623.655    1896.6825 
    6400     299.0927   -1156.2291    6286.1036    11519.531    1753.7076 
    6500    304.73655   -1158.5388    6296.5677    11648.258    1761.2142 
    6600    304.50706   -1155.4335    6370.6725    11720.565    1822.6114 
    6700    298.36928   -1148.2532    6299.4852    11525.434     1741.834 
    6800    300.08958   -1156.9773    6316.3649    11570.341    1737.7088 
    6900     302.6395   -1154.3572    6281.7388     11592.81    1830.9869 
    7000    304.25991   -1148.8955    6357.2547    11708.405    1839.2353 
    7100     300.6357   -1143.6362    6230.7933    11509.778    1808.3299 
    7200    295.51446   -1148.1103    6312.6891    11477.792    1829.2547 
    7300    303.69329   -1143.4182    6462.8819    11807.405    1853.7859 
    7400    302.90463   -1150.8757    6377.5459    11697.763     1765.797 
    7500    301.80023   -1148.7777    6287.2151    11585.936    1771.9505 
    7600    297.81328   -1141.9658    6358.1484    11578.506    1801.9808 
    7700    299.85826   -1143.5008    6473.8198    11736.331    1792.7249 
    7800    304.12812   -1145.7598    6339.9202    11691.391     1812.042 
    7900    301.95016   -1144.6351    6369.0838    11675.151    1869.3888 
    8000    301.79464   -1142.1474    6281.1865    11586.418    1812.0746 
    8100    297.16483   -1143.5291    6313.7182     11518.66    1813.5795 
    8200    298.44949   -1143.9094    6323.2314    11555.237    1780.8692 
    8300    299.16362   -1143.9834    6332.3152    11579.503     1731.866 
    8400    298.55745   -1141.1025    6358.1723    11595.292    1737.3482 
    8500    299.45562   -1146.2841    6375.4942     11626.62    1694.4041 
    8600    301.44967   -1142.7036    6354.5882    11651.894    1728.7179 
    8700    295.92701   -1145.7794    6343.5959    11519.843     1789.813 
    8800    301.24816   -1142.3756    6406.8909     11700.22    1811.2166 
    8900    303.87109   -1133.1892    6421.9198     11780.47     1861.574 
    9000    297.37005   -1137.3364    6284.3382    11499.857    1791.8491 
    9100    293.74354    -1143.489    6344.0856    11475.977    1862.8556 
    9200    305.53923   -1138.7741    6450.3321    11838.935    1898.9601 
    9300    295.81288   -1140.7995    6383.6563    11562.445    1760.8579 
    9400    302.06629   -1144.9446    6307.6615      11615.9    1721.2562 
    9500    301.93014   -1146.3008    6503.7157    11807.689    1810.1652 
    9600    295.79826   -1146.0072    6481.3946    11654.663    1845.0611 
    9700    299.55567   -1144.9132    6339.2601    11593.894    1842.6326 
    9800    293.22556   -1137.9304    6375.3553    11501.739    1871.8579 
    9900    295.59143   -1140.5409    6432.1403    11606.457     1827.297 
   10000    302.44604   -1144.3948    6380.4335    11697.334      1814.07 
   10100    298.56501   -1145.4964    6390.1291    11623.016    1812.8334 
   10200     300.5591   -1139.6074    6329.6612    11611.038    1859.2131 
   10300    299.68778   -1138.6923    6231.8526     11495.53    1792.8054 
   10400    296.41327    -1138.436    6462.2667    11656.245    1858.7513 
   10500    301.18468    -1138.486    6372.5896    11668.452    1825.6772 
   10600    299.31694   -1143.7761    6391.8637    11642.535    1857.0806 
   10700    293.39728   -1139.2007    6361.0191    11489.801     1822.716 
   10800     302.8567   -1142.0613    6348.0254    11676.033    1848.1264 
   10900    298.15696    -1141.689    6376.6392    11604.616    1864.9378 
   11000    303.48815   -1137.0965    6280.3521    11626.814    1863.8437 
   11100    296.42842   -1136.4017    6419.7457    11616.082    1868.9572 
   11200      299.584   -1133.1419    6422.2306    11689.241    1833.2079 
   11300    302.71088   -1140.1308    6293.1478     11619.97    1782.1775 
   11400    300.15668   -1133.6481    6384.5604    11663.299    1789.7797 
   11500    297.33955   -1133.4848     6507.456    11726.174    1835.9146 
   11600    302.39775   -1130.9214     6299.248    11628.591    1775.8963 
   11700    300.29698   -1126.4616    6458.1014    11747.024    1870.3958 
   11800    306.99019   -1128.4962    6463.1504    11893.029     1858.221 
   11900    298.45092   -1124.0579    6432.3956    11684.284    1824.4019 
   12000    302.05599   -1120.4829    6407.7122    11740.192    1834.5201 
   12100    298.70298   -1121.9065    6463.9933    11723.418     1793.409 
   12200    298.31289   -1116.8256    6378.4247    11634.596    1774.4681 
   12300     304.9362    -1119.343     6466.636    11861.787    1888.6152 
   12400    297.37647    -1120.284    6324.2667    11556.975    1736.3734 
   12500    298.00945   -1124.6957    6448.9757    11690.795    1776.8437 
   12600    300.23441   -1125.8052    6499.3326    11787.575    1813.5624 
   12700    301.40617   -1129.5027    6383.5361    11693.114    1775.5482 
   12800    298.94458   -1132.4349    6356.5208    11610.578    1799.6233 
   12900    299.84483   -1131.7615    6412.8509    11686.814    1837.1481 
   13000    300.61061   -1136.5648    6406.3682    11691.888    1904.8359 
   13100    297.93558   -1137.4206     6330.102    11557.618    1850.5517 
   13200     304.5883   -1141.9768    6428.7495    11793.834    1912.1994 
   13300    296.98583   -1140.2244    6407.6299    11612.052    1890.4758 
   13400    302.07948   -1139.7815    6277.1854    11590.869    1863.1908 
   13500    297.21992   -1139.7584    6257.0307     11466.92    1793.6313 
   13600    296.71196   -1143.4026     6372.746    11568.139    1841.6577 
   13700      302.173   -1136.0526    6381.7491    11701.159     1859.771 
   13800     300.9904   -1139.0746     6469.986    11761.109    1894.5564 
   13900    296.10936   -1142.8818    6361.4261    11544.466    1875.9288 
   14000    302.43483   -1135.8686    6275.1372    11600.325    1822.8943 
   14100    300.56402   -1142.9378     6410.765    11688.916    1825.7013 
   14200    300.44386   -1142.7479    6380.6701    11656.444    1839.9224 
   14300    300.04344   -1140.0262    6447.5397    11717.481    1856.7927 
   14400    298.70889   -1138.1631    6505.0384    11748.332    1824.3031 
   14500    301.60459   -1139.0421    6311.1899    11615.467    1772.4318 
   14600    291.91814   -1132.5488    6338.5762    11442.411    1745.9747 
   14700    305.07326   -1134.5954     6528.176    11911.003    1787.0738 
   14800    298.62148   -1133.8024    6437.2489    11683.036    1786.4661 
   14900    300.36992   -1133.3771    6394.4944     11678.06    1745.0462 
   15000    297.21694   -1134.4485    6470.0456    11685.181    1768.7985 
   15100    299.04827   -1137.2769    6289.1498     11540.58    1781.5505 
   15200     297.9336   -1140.0835    6365.0636    11589.874    1742.2551 
   15300    300.37887   -1133.9655    6395.1712    11678.339    1749.7065 
   15400    297.43271   -1148.2337    6467.9737    11673.933    1803.9637 
   15500    296.58176   -1150.7104    6396.3524    11581.656    1853.1842 
   15600    302.21352   -1151.1006      6297.59    11602.818    1788.1356 
   15700    298.16179   -1159.9625    6436.9427    11646.749    1899.2916 
   15800    300.89197   -1158.4395    6322.7099    11592.366    1859.0853 
   15900    299.17186   -1157.2443    6361.4727    11595.576    1888.8853 
   16000     299.5985   -1153.3572     6246.972    11494.077    1893.1884 
   16100    299.45783   -1153.6935    6386.7482    11630.512    1937.0679 
   16200    296.04622   -1153.7494    6428.4197    11599.243    1876.3002 
   16300    302.30989   -1153.1986    6278.3672    11583.556     1847.193 
   16400    298.33089   -1158.3666    6276.8293    11491.844    1881.4355 
   16500    300.62894   -1159.1895    6374.4258    11637.712    1922.3469 
   16600    307.40597   -1155.4959    6321.7565    11733.517    1889.9505 
   16700    299.52523   -1155.4009    6362.1354    11605.631    1828.0691 
   16800    296.19343   -1155.6277    6276.5731    11448.664    1849.1098 
   16900    302.32025   -1154.0129    6402.9236    11707.519    1919.6745 
   17000    298.57945   -1151.8138    6399.5333    11626.411    1877.3877 
   17100    303.24732   -1148.4304    6457.2519    11787.235     1967.336 
   17200    301.14798   -1146.6119    6348.6552    11635.608    1857.6605 
   17300     301.2127   -1145.0552    6318.4697    11608.362    1825.7542 
   17400    298.37939   -1136.9353    6473.8811    11711.364     1874.094 
   17500     305.6333   -1137.4135    6409.0462    11801.019    1846.6263 
   17600    295.68274   -1132.0094    6254.9515     11439.75    1768.3935 
   17700    302.55755   -1132.8193      6393.37    11724.228    1869.5829 
   17800     298.8016   -1132.2587    6451.7132    11702.892      1806.14 
   17900     297.1229   -1133.2761    6475.4819    11689.781    1764.8595 
   18000    300.12089   -1140.1665    6372.6451    11644.101    1844.6147 
   18100    297.58837   -1141.4518    6377.7415    11593.809    1776.5843 
   18200    303.44105   -1145.1907    6429.2922    11766.654    1843.6774 
   18300    300.48099   -1148.5283    6312.8625    11583.649    1834.0271 
   18400    296.50387   -1151.8693    6452.5511    11635.032    1813.1523 
   18500    297.79427   -1155.4627    6496.7711    11703.226    1820.9023 
   18600    301.64469   -1159.3291    6359.1273    11643.974    1851.4824 
   18700    294.74613   -1161.3382     6266.135    11401.596    1829.1541 
   18800    299.70471   -1163.2769    6324.9673    11564.422    1835.2453 
   18900    301.28942   -1168.1704    6430.8706    11699.286    1855.3512 
   19000    303.01857   -1166.2412    6429.9513    11737.237    1855.4578 
   19100    299.48692   -1166.9281    6346.6683    11577.819    1816.7529 
   19200    298.83167   -1158.8747     6214.776    11439.981    1833.1326 
   19300      299.015   -1158.8843    6420.0913    11649.204    1923.2064 
   19400    297.26137   -1159.1125    6352.7989    11544.219    1823.3327 
   19500    297.42432   -1154.0026    6391.3781     11591.39     1851.597 
   19600    298.55992   -1158.0446     6407.564    11627.794    1842.1591 
   19700    299.63256   -1161.2836    6315.4331    11555.339    1854.7569 
   19800    296.71411   -1165.5479    6389.7121    11563.006    1857.3558 
   19900    308.42652   -1156.8421    6460.2263    11892.443    1852.7199 
   20000    298.66193   -1154.6961    6404.5436    11630.301    1819.0752 
   20100    301.84758   -1144.8769    6402.1602    11705.794      1820.99 
   20200    300.73173   -1142.2389    6427.6399    11710.073     1808.831 
   20300    302.51566   -1140.5327    6408.2985    11730.549    1801.6313 
   20400    300.29578   -1133.0468    6473.1195    11755.431    1798.1415 
   20500    292.51457   -1127.3347    6443.0308    11564.821    1734.7795 
   20600    301.45875   -1127.5067    6522.4182    11835.115    1770.8114 
   20700    305.27679   -1121.7318    6383.8149    11783.853    1704.1303 
   20800    297.60919   -1117.3107    6456.4185    11697.071    1697.5546 
   20900    304.15479   -1116.7525    6533.6645    11914.712     1733.005 
   21000    292.80492   -1114.1545    6585.3921    11726.565    1712.3815 
   21100    304.29908    -1118.772    6408.8247    11790.936    1689.7754 
   21200    298.87928    -1121.809    6528.2652    11791.553    1739.0589 
   21300     299.8697   -1124.4337    6498.0774      11779.9    1756.5913 
   21400     298.9201   -1126.7872    6448.7193    11707.901    1743.4807 
   21500    307.16192   -1130.6409    6481.0682     11912.47    1800.0868 
   21600    298.07953   -1136.6871    6495.8118    11727.136    1812.9782 
   21700    304.85117   -1143.1691    6432.1029    11801.611    1761.2764 
   21800    295.12235   -1146.9254    6376.5149    11534.426    1808.7056 
   21900    300.74485   -1153.7118    6303.4342    11574.675    1837.7614 
   22000    296.99047   -1156.2564    6370.1712    11558.661    1797.6461 
   22100    297.98951   -1150.6421    6497.7179    11713.164    1864.5194 
   22200    303.15258   -1149.7945    6431.9506    11758.546    1949.2899 
   22300    294.34817   -1158.3084     6324.385    11454.374    1895.5968 
   22400     297.8897   -1154.1448    6237.1723    11446.984    1798.4573 
   22500    299.25793   -1160.2379    6443.7705    11676.719    1924.7961 
   22600    302.77589   -1156.5266    6405.5924    11717.408    1830.4729 
   22700    298.43129   -1166.4448    6486.2595    11695.341    1842.9658 
   22800    297.46583   -1174.2954    6343.4768    11524.082    1851.3562 
   22900    300.45143    -1170.971     6293.701    11541.414    1842.4633 
   23000    300.09623   -1166.4221    6449.7643    11694.438    1900.5895 
   23100    303.12154   -1156.0801    6395.4536      11715.1    1907.2795 
   23200    294.92918   -1160.8905    6334.0542    11473.873    1816.6186 
   23300    301.43266   -1162.5934    6343.4437    11620.497    1871.0079 
   23400    302.46951   -1157.8995    6443.9399    11747.837    1904.4468 
   23500     297.8566   -1155.8354    6441.2749    11648.689    1893.1516 
   23600    303.06352   -1157.3401    6473.0776    11790.225    1885.1481 
   23700    298.35909   -1152.9747     6413.129    11634.139    1781.9936 
   23800    304.51684   -1146.4075    6420.3422     11779.47    1793.4589 
   23900      302.203   -1142.7442    6459.6085    11772.968    1836.9796 
   24000    294.22244   -1137.8789    6552.9908    11700.723    1803.2775 
   24100    297.46055   -1134.0147    6437.6963     11658.47    1810.5145 
   24200    301.65931   -1135.3121    6427.4989    11736.675     1911.303 
   24300    298.11441   -1134.5104    6330.2046    11564.451    1864.4225 
   24400    304.47925   -1132.5573    6507.3157     11879.49    1896.5211 
   24500    297.10339   -1132.5615    6486.6708    11701.267    1841.5398 
   24600    303.39891    -1135.238    6457.8442    11804.258    1868.4926 
   24700     295.6335   -1134.1092    6542.0116    11723.658    1934.9996 
   24800    301.24096   -1134.3983     6286.377     11587.53     1835.109 
   24900    298.63633   -1138.3915    6417.2411    11658.757    1882.5644 
   25000     304.7722   -1138.3794    6435.6467    11808.258     1859.863 
   25100    304.05582   -1145.8946     6414.745    11764.536    1864.0393 
   25200    296.41489   -1146.1254    6394.7778    11581.102    1822.9011 
   25300    302.02814    -1149.716     6438.843    11741.495    1915.3058 
   25400    301.02114    -1155.138     6434.138    11709.855     1878.797 
   25500    304.09658   -1153.1977     6364.152    11707.511    1821.9391 
   25600    296.92585   -1156.3588    6371.9969    11559.003     1900.768 
   25700    304.49088   -1154.5342    6363.2726    11713.719    1918.2073 
   25800    298.50718    -1148.084     6306.755    11535.819    1800.9918 
   25900    301.14613   -1157.4767    6410.6711    11686.719    1815.1092 
   26000    301.16541   -1151.1416    6427.8231    11710.618    1896.8223 
   26100    298.41982   -1159.7878    6437.6501    11653.144    1928.8648 
   26200    295.35708   -1156.1515    6427.8182    11581.518      1858.57 
   26300    302.44839   -1150.2559    6349.6859    11660.776    1877.4903 
   26400    300.54543   -1149.7357    6265.2944    11536.251     1843.628 
   26500    301.26228   -1162.1076    6406.4507    11680.349     1884.862 
   26600     299.8994   -1153.9131    6383.8698    11636.847    1886.4227 
   26700    301.29601   -1157.7353    6462.1844    11741.176     1862.261 
   26800     301.0432   -1153.7948    6298.8515    11576.383    1806.4429 
   26900    300.71008   -1150.7271    6358.7572    11632.239    1876.3917 
   27000    297.81092   -1147.3537    6384.5979    11599.518    1837.7622 
   27100    301.36641    -1143.774    6480.3034     11774.76    1804.8986 
   27200    304.13691   -1139.5875    6497.7798    11855.611    1927.3752 
   27300    298.56342   -1138.0589    6395.6693     11635.96    1863.6809 
   27400     299.3635   -1136.9048    6352.2937    11610.831    1777.3317 
   27500    300.96863   -1136.7033    6427.8334    11720.863    1808.3735 
   27600    297.17721   -1135.2756    6481.7364    11695.196    1821.0179 
   27700    301.60907   -1131.4496    6416.4092    11728.375    1794.3564 
   27800    303.74561   -1136.0005    6358.5967    11711.655    1789.9873 
   27900    302.43669   -1138.4646    6473.4393    11796.071    1911.9318 
   28000     299.5736   -1137.6994    6338.3911    11600.622    1776.2576 
   28100    303.00166   -1138.8456    6473.9753    11808.295    1825.1904 
   28200    295.82294   -1138.0028    6390.2597     11572.06    1808.5491 
   28300    301.59018   -1142.6111    6351.9157    11652.316    1886.2593 
   28400    304.57886   -1139.5423    6513.4595    11880.777    1972.4936 
   28500    298.54509   -1150.8398    6375.3988    11602.517    1933.0874 
   28600    302.45147    -1146.381    6218.1469    11533.177    1870.0875 
   28700    297.64061   -1146.3777    6422.9625     11635.22    1868.1111 
   28800    296.06074    -1157.222    6500.9488     11668.61    1886.3512 
   28900    300.84239   -1158.7963    6449.6777    11717.917     1824.271 
   29000    295.08721    -1159.679     6304.761    11449.167    1799.6841 
   29100    297.69022   -1163.0438    6408.9066    11605.557     1829.947 
   29200    299.65799   -1158.5408    6368.2298    11611.422    1816.6773 
   29300    298.79969   -1155.5438    6281.7851    11509.638    1816.8768 
   29400    301.07553   -1162.7741       6435.1    11704.343    1828.5621 
   29500     297.2749   -1159.7825    6444.1572    11635.197    1849.5481 
   29600    302.66424   -1156.6848    6442.5522    11751.824    1945.7282 
   29700    300.28935   -1163.5856     6362.153    11613.789    1853.3816 
   29800    300.02517   -1157.7832    6483.5574    11735.352    1910.0981 
   29900    301.20224   -1166.7643    6336.8974    11604.857    1835.5355 
   30000    290.80357   -1163.9662    6457.2233    11505.829    1904.8748 
   30100    301.78485   -1163.0728    6443.4861    11727.584    1878.6519 
   30200    296.12267   -1159.1547    6419.7217    11586.774    1917.7012 
   30300     300.4772   -1154.2852    6400.2756    11665.225    1983.2879 
   30400    296.00082   -1150.1133    6327.9706    11501.461     1881.476 
   30500    301.43415   -1147.8953    6460.0323    11751.815    1972.9692 
   30600    306.36188   -1152.9058    6418.3984    11810.444    1909.9977 
   30700    297.85254   -1153.9692    6408.4405    11617.634    1896.9151 
   30800    299.87826   -1154.4293    6357.6477    11609.657    1915.0067 
   30900    307.70261   -1151.5602    6466.2204    11888.254    1956.5155 
   31000    298.92394   -1155.2516    6433.1766    11663.976    1875.8387 
   31100    295.25653   -1154.9571    6400.3317    11553.077    1836.4686 
   31200    304.10391   -1155.8866    6450.5381    11791.365    1869.6424 
   31300    297.53685   -1155.2962    6368.8625    11569.985     1862.531 
   31400    304.24856   -1151.7222    6363.8484     11711.93    1885.5197 
   31500    301.64655   -1154.0686    6456.2676    11746.415    1880.6115 
   31600    300.91134   -1154.0678    6515.6807    11790.122    1869.1762 
   31700    303.15673   -1156.1984    6377.9682    11698.248    1823.7627 
   31800    305.86062    -1158.272     6393.942    11769.913    1903.9324 
   31900    297.99055   -1160.8637    6432.6521    11637.899     1849.792 
   32000    302.42812   -1155.3592    6471.9302    11777.484    1861.9088 
   32100    296.86944   -1150.5759      6517.43    11709.014    1867.6946 
   32200    299.75974   -1151.2958    6464.4988     11717.11    1917.4842 
   32300    298.55548   -1157.6351    6319.5661    11540.111    1874.0783 
   32400    301.31282   -1148.4674    6436.5053    11725.124    1846.2729 
   32500    305.18524   -1155.2995    6427.6019    11792.117    1843.9255 
   32600     296.6901   -1152.2584    6335.2046    11521.275    1816.8593 
   32700    302.96605   -1149.1584    6434.7701    11758.017    1893.8424 
   32800    298.34794   -1156.0429    6461.5446    11679.248    1912.5859 
   32900    295.55804   -1145.5994    6394.8151     11563.36    1777.6999 
   33000    304.22137   -1147.6015    6426.9705    11778.592    1796.4106 
   33100    298.95591    -1146.276     6446.983    11687.441    1850.6012 
   33200    301.62832   -1144.3894    6440.9324    11740.369    1859.6988 
   33300    297.35238   -1144.4704    6379.7754    11587.782    1828.7474 
   33400    298.31711    -1147.997    6389.9228    11615.013    1881.0126 
   33500    302.08346   -1141.2496    6362.2201     11674.52    1864.3062 
   33600    295.57874   -1143.8903    6440.9357    11611.632    1816.5818 
   33700    301.93064   -1138.3006    6426.5765    11738.561     1829.799 
   33800     302.3951   -1146.0941    6484.1778    11798.291     1898.858 
   33900    297.74631   -1147.2515    6439.1342    11652.776    1829.4846 
   34000    300.97646   -1146.3726    6448.2361    11731.764    1882.1771 
   34100    300.30303   -1149.7002    6372.3234    11638.137    1903.4636 
   34200    296.70048   -1149.3211    6445.9854    11635.215    1857.9016 
   34300     296.9006   -1149.1455    6449.4032    11643.083    1826.5769 
   34400    305.27515   -1144.1548    6474.5315    11852.112    1866.1526 
   34500    298.79189   -1146.7415    6417.2939    11653.783    1857.7308 
   34600    300.79118    -1150.866    6380.1259    11655.202    1860.2953 
   34700    299.07784   -1151.4112    6332.6247    11570.553     1854.779 
   34800    299.38814   -1149.0764    6380.8815    11627.773    1852.2242 
   34900    300.46787   -1150.3787    6442.1498    11710.806    1786.2972 
   35000    299.79518   -1147.5001    6494.1942    11751.358    1919.9719 
   35100     302.0181    -1150.003    6411.4016    11713.552    1939.7878 
   35200    297.53443   -1149.9071    6352.0914    11558.551      1896.66 
   35300    298.09792   -1151.8939    6377.5561    11594.067     1886.123 
   35400    303.48238   -1150.1631    6445.0352    11778.307    1898.5433 
   35500    294.29705   -1149.1766    6548.1373    11686.166    1855.2376 
   35600    304.47413   -1150.9605    6440.4916    11794.154    1858.2886 
   35700    294.42809   -1149.4745    6291.1493    11431.679    1841.3909 
   35800    302.08463    -1154.144    6460.3507    11759.781    1930.2738 
   35900    301.13271   -1152.0317    6489.2886    11770.495     1817.565 
   36000    301.61993   -1151.8702    6375.0477    11666.824    1792.9289 
   36100    300.94786   -1153.7641    6406.8232    11682.348    1869.9852 
   36200    300.37924   -1157.0589    6412.6625    11672.745    1836.0347 
   36300    296.89975   -1151.7281      6344.23    11535.309    1833.3589 
   36400    299.87718   -1160.0073    6376.1951    11622.604    1878.6452 
   36500    302.91069   -1164.5682    6403.0429    11709.697    1842.0633 
   36600    296.38291   -1162.8901    6454.0722    11622.948    1869.4738 
   36700    301.61869   -1163.0538    6320.0391    11600.606    1886.9792 
   36800    299.21621   -1166.2007    6355.6423    11581.737    1869.7889 
   36900    303.29342   -1165.7752    6404.1295    11717.753    1815.2838 
   37000     302.0565    -1164.991     6411.868    11699.851    1845.4544 
   37100    301.31872   -1165.0804    6410.9136    11683.045    1809.1514 
   37200    302.30759   -1168.4118    6481.4337     11771.36    1828.7453 
   37300     297.9157   -1160.7837    6391.9565    11595.685     1892.657 
   37400    293.06065   -1163.2512     6353.456    11450.996    1860.3415 
   37500    299.28464   -1165.0215    6341.6604    11570.396    1782.7871 
   37600    299.15742    -1162.154    6463.3459    11692.231    1881.6473 
   37700    299.62369   -1166.4525    6410.2274    11644.775    1843.5102 
   37800     297.6102   -1166.1639    6531.0715    11722.893     1906.029 
   37900    301.44777    -1157.504    6371.0215    11653.486    1932.1003 
   38000     298.1115   -1160.5198    6311.2954     11519.47    1896.3844 
   38100    303.00202   -1156.8227    6471.7259    11788.076    1836.4558 
   38200    297.85945   -1151.0229    6440.0683    11652.355    1834.0215 
   38300    302.24165   -1148.4748    6501.1339    11809.588    1846.7296 
   38400    295.18457   -1146.4246    6477.9324    11637.673    1808.4418 
   38500    299.43782   -1146.7911    6374.6048    11624.843    1801.6509 
   38600    297.55208   -1144.9736    6342.0359    11553.806    1813.2189 
   38700    301.67232    -1144.398    6527.2573    11827.626     1861.344 
   38800    301.91696    -1145.642    6515.7138    11820.064    1866.1839 
   38900    300.84473   -1144.5395    6429.8823    11712.429    1858.4148 
   39000    299.94664   -1139.5866    6485.6742    11753.987    1843.5142 
   39100    301.25588    -1138.336    6446.9344    11744.468     1819.636 
   39200     297.3835   -1142.1173    6455.4462    11666.471    1834.4227 
   39300    301.30327   -1132.1574    6443.4517    11748.176    1811.9169 
   39400     300.3243   -1137.2746     6503.417     11782.11    1896.9609 
   39500     299.5294   -1144.9008    6424.9429    11679.028    1856.3069 
   39600    299.56118   -1142.9471    6345.4505    11602.168    1770.4495 
   39700    296.56494   -1148.2544    6441.0804    11628.481    1798.4327 
   39800    299.00397   -1147.2611    6427.0494    11667.549    1812.5894 
   39900    299.08461   -1150.7101    6350.3913    11589.165    1788.5198 
   40000    303.83204   -1148.9947    6413.3928    11755.304    1829.7604 
   40100    299.79073   -1153.9395    6486.3191    11736.948    1898.6661 
   40200    300.89705   -1156.7651    6389.1266    11660.565    1819.1486 
   40300    299.21733   -1154.8664    6420.2749    11657.728    1887.7126 
   40400    300.45105   -1146.8473    6436.4604    11708.289     1928.929 
   40500    298.46866   -1161.6792    6338.0015    11552.647    1871.8789 
   40600    297.13767   -1161.4302    6413.5278    11599.988    1895.0671 
   40700    297.25896   -1161.0744    6345.4822    11534.889    1870.5761 
   40800    302.74186   -1166.3076    6453.7017    11755.009    1847.3688 
   40900    294.03836   -1169.1245    6415.1401    11527.694    1786.8208 
   41000    301.68508   -1166.6513    6382.9608    11661.348    1863.2121 
   41100    299.15412   -1171.9678     6426.397    11645.398    1910.8577 
   41200    296.99931   -1163.3661    6333.9947    11515.563    1856.0683 
   41300    303.62729   -1163.5814     6335.676    11658.626    1919.0414 
   41400    299.56251   -1158.3706    6445.6856    11687.008    1940.8805 
   41500    300.54184   -1162.2254    6393.5188    11651.909    1854.8919 
   41600    299.93782   -1157.7239    6384.5422     11634.53    1860.1313 
   41700    298.27886   -1158.1531    6488.7135     11702.83    1940.8851 
   41800    300.56895   -1160.7698    6345.9259    11606.351    1835.4595 
   41900    299.14375   -1163.2023    6358.2064    11585.751    1750.6657 
   42000    301.96939   -1159.2613    6522.1949    11814.046     1853.706 
   42100    297.36427   -1158.5078    6512.4606    11706.684    1877.0586 
   42200    303.82206   -1159.2145    6323.2191    11654.697    1846.7135 
   42300    301.09733   -1153.4937    6386.2566    11665.245    1886.0969 
   42400    299.36027   -1148.5254    6453.3248    11700.172    1885.5205 
   42500     299.4258   -1148.4738    6418.4706     11666.77    1731.1614 
   42600    300.86028   -1143.8956    6464.7141    11748.237    1821.2981 
   42700    295.16069   -1151.3244    6405.6088     11559.94    1791.7879 
   42800    294.85816   -1152.5633    6363.3461    11509.975    1716.0659 
   42900    301.31798   -1151.7711    6431.1947     11716.62    1793.3781 
   43000    300.11659   -1150.6798    6551.3997     11812.25    1766.0849 
   43100     297.7391   -1157.2333    6452.3887    11655.895     1717.865 
   43200    301.89943   -1145.9671    6444.0356    11747.687    1806.9599 
   43300    305.44495   -1144.8932    6291.0694    11671.539    1788.9001 
   43400     299.5408   -1145.9631    6567.9871    11821.254    1899.2489 
   43500    295.78451   -1147.5199    6408.9521    11580.414    1801.5289 
   43600    298.60034   -1148.7536    6357.5838    11587.968    1847.9229 
   43700    302.14757   -1154.5869    6371.6697    11672.002    1878.9718 
   43800    298.17876   -1152.2703    6485.8837    11703.745    1885.6248 
   43900    301.67038    -1154.258    6406.0247    11696.492    1804.2986 
   44000    297.63572   -1158.3197    6507.2213    11707.432    1892.9711 
   44100    299.03298   -1157.3996     6397.074    11628.055    1839.2025 
   44200    301.40611   -1154.4595    6442.4517    11727.071    1810.9161 
   44300    295.24649   -1153.9679    6435.8444    11589.365     1902.384 
   44400    299.77291   -1157.1814    6483.4718    11730.479    1871.7624 
   44500    299.75209   -1148.5007    6399.2338    11654.477    1836.7983 
   44600    299.97384   -1151.7748    6413.3976    11670.104    1844.8155 
   44700    303.43324   -1153.6344    6359.7889     11688.54    1895.6361 
   44800    302.90776   -1151.9089    6411.4629    11730.714    1864.3687 
   44900     299.1884   -1162.4866    6405.5971    11634.812    1809.4834 
   45000    299.89673   -1162.1291    6447.2657     11691.97    1876.7888 
   45100    296.30126   -1161.0558    6406.8762    11575.842     1884.981 
   45200    303.13416   -1160.9805    6336.8146     11651.83    1845.5281 
   45300    298.46143   -1154.4015    6452.6021    11674.371    1817.0602 
   45400    298.29142   -1154.2899    6548.7685    11767.017    1863.0314 
   45500    302.45397   -1153.9915    6408.9391    11716.413    1828.5463 
   45600    300.25134   -1153.1473    6272.5891    11533.851    1822.1966 
   45700    297.37795    -1160.427    6398.5769    11591.174    1840.5117 
   45800    304.23982    -1161.093    6438.2102    11776.734    1882.5636 
   45900    294.44906   -1165.9077    6498.1035    11622.648    1892.8233 
   46000    307.65277   -1161.2498    6400.6668    11811.946    1881.5764 
   46100    299.70527   -1166.0415    6402.0752    11638.777    1831.3562 
   46200    300.62515   -1160.7954    6431.4522    11693.052    1870.1373 
   46300    297.66574   -1156.5359    6548.0798    11750.716    1936.4245 
   46400    302.08092   -1160.8959    6317.8463    11610.446    1833.8435 
   46500     300.8527   -1159.3245    6418.2969    11686.229    1913.0477 
   46600    299.17426   -1156.5139    6399.7228    11634.608    1908.3269 
   46700    301.40851   -1163.6589    6394.1069    11669.578    1871.5634 
   46800    296.28485   -1167.3709    6571.8095     11734.11     1953.067 
   46900    304.01031   -1166.6626    6293.7469    11621.798    1853.0868 
   47000     296.5069   -1164.8609    6295.3601    11464.914    1825.3562 
   47100    300.40641   -1158.4255    6551.2972    11810.594    1956.2961 
   47200    296.19208   -1159.1218    6385.7667    11554.334    1873.6266 
   47300    299.98299    -1161.782    6355.4268    11602.321    1889.7533 
   47400    301.05657   -1156.2103    6498.9538    11774.355    1892.6611 
   47500    297.80469    -1159.147    6374.4021    11577.395    1836.0335 
   47600    300.80888   -1160.1969    6372.4803    11638.604    1823.2381 
   47700    294.73708   -1160.2399    6531.0963    11667.462    1913.0302 
   47800    301.59311   -1161.6836    6341.6223    11623.013    1813.2116 
   47900    301.03985   -1162.4946    6470.7477    11739.508    1879.8233 
   48000    300.69367   -1163.1715    6402.3303    11663.018    1765.1623 
   48100    299.41731   -1156.8197    6503.2072    11742.979    1835.1892 
   48200    300.59968    -1156.851    6411.6368    11676.637     1869.909 
   48300    298.66598   -1154.2308    6389.2877    11615.597     1876.362 
   48400    296.89197   -1150.3251    6491.3611    11683.677    1872.7037 
   48500    300.63169    -1147.423    6447.5506    11722.662    1844.5468 
   48600    304.07659    -1152.938    6473.7644    11816.956     1924.623 
   48700    295.62227   -1153.9525    6360.5212    11522.085    1857.4998 
   48800    298.41717    -1156.974    6444.0687     11662.32    1881.9853 
   48900    302.19899   -1153.7734    6409.0925    11711.337    1856.5485 
   49000    294.57064   -1151.6114    6387.5135    11528.952    1763.8933 
   49100    301.58836   -1153.3404    6560.3881     11850.02    1886.1357 
   49200    303.85977   -1155.2626    6399.4242    11735.659    1834.1443 
   49300    300.52753    -1147.564    6409.1706    11681.916    1888.1697 
   49400    300.58064   -1152.3625    6478.2463    11747.328    1902.9255 
   49500    292.76735   -1155.5145    6511.4238    11610.435    1850.8614 
   49600    303.89888   -1156.3352    6360.9196    11696.918    1871.1592 
   49700    300.69644   -1155.5332    6271.0503    11539.435    1808.7179 
   49800    300.91985   -1160.5022    6432.6148    11700.804      1837.04 
   49900     304.0495   -1165.8012    6408.1812    11737.931    1822.0323 
   50000    297.14622   -1164.6892     6588.431    11771.815    1923.5204 
   50100    300.89821   -1167.3464    6369.9724    11630.854    1873.4545 
   50200    301.43238   -1165.7677    6355.3191    11629.192     1867.683 
   50300    296.32683     -1168.94    6477.6009    11639.229    1921.4255 
   50400    298.23432   -1166.2339    6394.6174    11599.702    1906.3742 
   50500    302.00573   -1166.3296    6330.5985    11616.158    1929.8164 
   50600    298.52341   -1166.7017    6405.4775     11616.27    1930.6974 
   50700    306.86945   -1169.3457     6373.463    11759.912    1911.1429 
   50800    295.96416   -1168.0485    6492.0978    11646.869    1898.3034 
   50900    302.63144   -1172.1776    6361.7394    11654.818    1863.9007 
   51000    300.34165   -1170.6263    6301.3447    11547.057    1813.1723 
   51100    299.16608   -1166.1974    6410.6832     11635.71    1848.3702 
   51200    305.13238   -1167.4462    6425.0022    11776.241    1872.2735 
   51300    304.00802   -1163.7231    6457.3044    11788.246    1854.8936 
   51400    297.57529   -1158.9088    6479.7732    11678.104    1898.8527 
   51500    300.31762   -1165.6671    6344.4988    11594.657    1874.2097 
   51600    302.35609   -1159.0393    6359.4864    11659.821    1869.9698 
   51700    297.77098   -1153.2759    6486.3468    11694.491    1898.6028 
   51800    300.17678   -1153.6072    6510.7158    11769.925    1890.5964 
   51900    298.36607   -1158.2139    6400.5824    11616.502    1900.7607 
   52000    295.52764   -1153.6465    6364.8716     11524.72    1846.7709 
   52100    302.21017   -1143.3511    6426.5585    11739.464    1896.3382 
   52200    296.03798   -1144.3879    6415.4575    11595.467    1854.5246 
   52300    301.19003   -1144.5715     6474.591    11764.482    1887.9923 
   52400    301.78644   -1145.6478     6501.802    11803.359    1900.6323 
   52500    304.39646   -1145.1478    6422.8811    11780.697    1900.9142 
   52600    300.15185   -1147.8349     6383.434    11647.883    1944.2462 
   52700    301.74761   -1148.4684    6530.6824    11828.589    1973.2933 
   52800    298.86204   -1147.3424     6431.349    11668.735    1901.4988 
   52900    302.42966   -1151.7563    6418.9396    11728.129    1961.5619 
   53000    306.06107   -1155.3486    6366.2058    11749.382    1919.0007 
   53100    298.24299   -1154.6655     6512.747    11729.585    1953.5413 
   53200    296.81561   -1149.7053    6385.8316    11577.136    1879.2404 
   53300    294.46108   -1155.3451    6459.1798    11594.544    1943.9161 
   53400    298.59247   -1162.5271    6421.4875     11637.93    1859.6185 
   53500    303.53464   -1157.3344    6396.9842    11724.202    1818.6604 
   53600    296.55165   -1161.3564     6367.661    11541.675    1854.0601 
   53700    303.21087    -1159.593    6395.5485    11713.591    1924.6314 
   53800    298.72447   -1167.9548     6452.189    11666.024    1905.9175 
   53900    300.86013   -1171.8964    6395.1446    11650.663    1867.9203 
   54000    300.70674   -1169.2946     6392.348    11647.192    1870.4886 
   54100    301.52377   -1168.8343     6398.943    11671.701     1890.407 
   54200    297.19166   -1168.0509    6348.3883    11529.381    1844.1811 
   54300    295.93835   -1170.5785    6364.5286    11516.219    1889.6144 
   54400    301.25212   -1172.1129    6347.1871    11610.864    1876.6721 
   54500    294.62854   -1170.3935     6451.054    11574.947    1914.8237 
   54600    295.54816   -1168.8704     6405.002    11550.065     1877.951 
   54700    302.13239    -1171.092    6408.9715    11692.474    1876.5834 
   54800    302.78421   -1169.1993    6438.3067    11737.627    1888.8787 
   54900    294.09425   -1164.7932    6428.8567    11546.936    1929.4583 
   55000    298.46652   -1165.0018    6385.9083    11597.186     1952.496 
   55100    297.56143   -1159.8953    6439.9536    11637.002      1915.47 
   55200    303.37942   -1162.7923    6403.8666     11722.31    1894.8962 
   55300     296.9613   -1160.2781    6431.1579    11615.002    1920.5353 
   55400     299.9378   -1158.2459    6501.2225    11750.688    1929.7679 
   55500    304.05481   -1155.4753    6391.3485    11731.538    1849.7006 
   55600    298.39435   -1156.3238    6494.1988    11712.612    1923.2608 
   55700    300.06328   -1154.6956     6422.347    11678.043     1881.994 
   55800    299.87656   -1153.8273    6513.7751     11766.35    1931.5971 
   55900    304.10466   -1157.4338    6398.7469    11738.043    1888.1152 
   56000    299.50316   -1151.5555    6420.3908    11667.261     1876.157 
   56100    297.12767   -1153.1165    6434.0759    11628.636    1872.9703 
   56200    299.54675    -1155.884    6537.7989    11781.272    1906.1017 
   56300    298.02949   -1152.8941    6612.0327    11826.081    1930.9858 
   56400    298.00987   -1155.6006    6244.1044    11455.027    1816.2685 
   56500     299.3648    -1154.615    6363.5779    11604.432    1931.2484 
   56600    298.11156   -1154.8614     6441.674    11655.509    1876.9755 
   56700    297.93571   -1147.6861    6468.6041    11685.857    1854.2956 
   56800     304.8543   -1155.0522    6516.8293    11874.521    1887.8795 
   56900    299.97207   -1158.7728     6356.564    11606.234    1824.3858 
   57000    293.74961    -1162.362    6338.2627     11451.41     1830.017 
   57100    306.48164   -1158.8817    6366.2038    11754.832    1829.1868 
   57200      295.415   -1159.9243    6507.6079    11658.772    1882.9768 
   57300    299.05876   -1166.3702    6351.3926    11573.954    1835.2089 
   57400    300.34277   -1158.2978    6342.5918    11600.656    1870.8729 
   57500    297.00417    -1159.512    6387.8918    11573.418    1900.6373 
   57600    302.58917   -1157.2266    6407.6015    11714.728    1841.0434 
   57700    305.23216   -1158.8702    6356.1183    11718.065    1841.0729 
   57800     296.9573   -1152.3971    6479.4937    11671.134    1893.2967 
   57900    300.65167   -1161.1953    6355.2078    11616.974    1820.1883 
   58000    297.87057   -1162.3929     6360.397    11561.552    1784.0693 
   58100    300.14979    -1164.629    6333.8741    11581.485    1784.2191 
   58200    299.36469   -1166.2967    6589.5871    11818.758    1939.5959 
   58300    301.04414   -1164.2507    6454.2362    11721.332    1850.1645 
   58400    295.12235   -1165.1776    6339.7514     11479.41    1852.4797 
   58500    303.34576    -1160.014     6401.863    11722.366    1893.1177 
   58600    299.90341   -1153.5388    6403.9472    11657.385    1813.8302 
   58700    303.00152   -1156.7306    6362.0781     11678.51    1827.4249 
   58800    296.44262   -1153.8568    6429.4054     11608.59    1834.2878 
   58900    305.40591   -1157.8967    6384.3665    11750.998    1868.6782 
   59000    299.49788   -1154.4885    6344.8126    11588.637    1917.9721 
   59100    293.67828   -1163.2523    6487.4278    11598.161    1877.1616 
   59200    302.94301   -1157.2741    6454.1938    11768.832    1822.3556 
   59300    299.04927   -1160.2807    6408.3659    11636.814    1891.1408 
   59400    303.54546   -1162.9713    6340.1219    11661.933    1910.1146 
   59500    294.26479   -1163.8877    6322.5451    11445.173    1867.2944 
   59600    301.66238   -1155.1627     6442.365    11731.756      1891.54 
   59700    298.08543    -1156.593    6305.8037    11517.349    1944.4318 
   59800    300.85189   -1150.2399    6557.4348    11834.434    1914.1825 
   59900    297.82647   -1147.4857    6548.0831    11763.203    1899.8696 
   60000    302.62814   -1163.2536    6255.3092    11557.241    1836.6524 
   60100    297.10829   -1164.4235     6317.381     11500.22    1840.3934 
   60200    300.47527   -1168.6529    6467.4481    11717.988     1801.568 
   60300    298.58696   -1169.1292    6597.0214    11806.744    1813.1384 
   60400    302.58753   -1165.0311     6435.152    11734.439    1776.3804 
   60500    302.41878   -1164.4863    6433.2194    11729.446    1778.7154 
   60600     297.0751   -1164.6461    6491.8832    11673.791    1839.4175 
   60700    301.30643   -1160.3668    6357.8467    11634.429    1833.1564 
   60800    299.85772    -1163.605     6328.732    11571.127    1837.2283 
   60900    299.40568   -1156.8567    6496.8617    11736.348    1893.3582 
   61000    304.38889   -1158.8261     6537.263    11881.239    1908.3838 
   61100    303.40029   -1167.3508    6283.9397    11598.271    1823.6748 
   61200    298.19299   -1170.6731    6355.2911    11555.054    1835.5212 
   61300    301.32448   -1162.2861    6389.1321    11664.181    1855.7528 
   61400     298.8956   -1161.4924    6428.6054    11652.559    1890.2549 
   61500    298.63381   -1162.9389    6520.9643    11737.879    1862.5476 
   61600    294.65394   -1163.2797    6349.6782    11481.228     1750.802 
   61700    303.58188    -1163.727    6463.9785    11785.812    1918.5819 
   61800     302.4813   -1159.8572    6429.1898    11731.381    1909.3448 
   61900     300.3902   -1158.2094    6451.7928    11710.959    1937.5618 
   62000    301.54916   -1158.3616    6413.5292    11697.303    1860.9919 
   62100    296.00006   -1157.4006    6424.4478    11590.634    1850.8599 
   62200    298.71812   -1162.1563    6450.9912    11670.489    1897.7038 
   62300    305.74255   -1156.4292    6472.2666    11847.558    1953.0628 
   62400    302.61042    -1152.463    6421.4468    11733.791    1931.8062 
   62500    297.54524   -1161.1081    6349.0406     11544.53    1885.3429 
   62600    304.63173   -1158.6783     6469.086    11818.397    1893.0421 
   62700    297.89162   -1157.6385    6467.5679    11673.927    1870.4511 
   62800    301.70117    -1166.127    6495.3757    11774.631    1903.9074 
   62900    299.95872   -1161.7479    6330.0604     11576.47    1824.4297 
   63000    299.18088   -1163.3715    6455.7275    11683.897    1871.9587 
   63100    300.91467   -1159.8203    6414.6989    11683.459    1871.9783 
   63200    301.21314   -1158.4837    6463.8635    11740.336    1970.5056 
   63300    299.58318   -1160.2374    6337.7555    11577.653    1779.9026 
   63400    296.63977   -1160.5612    6581.0495    11757.742    1942.9957 
   63500    299.06421   -1162.2262    6431.6712    11658.493    1900.2553 
   63600    302.44373    -1158.076     6406.467    11709.637    1846.1791 
   63700    300.05169   -1166.2024    6417.8207    11661.762    1836.1061 
   63800     300.9387   -1162.4607    6483.4995    11750.132    1899.6534 
   63900    295.03633   -1171.2825    6448.9525    11580.669    1898.3996 
   64000    303.34879   -1167.0129    6392.5846    11706.153     1851.095 
   64100    297.12827   -1165.7704    6535.1115    11717.031    1981.7945 
   64200    299.36503    -1166.676    6276.3945    11505.193    1890.3771 
   64300    299.92373   -1164.2561    6420.8576    11664.012     1895.653 
   64400    301.51835   -1165.8182    6455.8669    11731.526    1926.4482 
   64500    295.69941   -1157.4057    6351.2869    11511.045    1860.5488 
   64600     295.8731   -1161.3683    6338.6477    11498.154    1856.0414 
   64700    300.54242   -1163.3168    6398.7664    11656.077    1867.8729 
   64800    297.46132   -1164.2052     6451.771     11642.37    1856.6429 
   64900    303.47615   -1161.7852    6464.6052    11786.122    1833.9746 
   65000    300.71846   -1157.4681    6474.0999     11741.02    1876.4239 
   65100    298.46373   -1154.8033    6366.1794    11587.596    1883.3086 
   65200    301.60066   -1149.6354    6366.1669    11659.767    1917.8728 
   65300    295.04026   -1152.7887    6519.7727    11670.067    1875.3865 
   65400    302.94045   -1156.3032    6416.1593    11731.714    1913.5562 
   65500    303.04107   -1155.9362    6386.7785     11704.85    1904.7875 
   65600    297.13097   -1152.9334    6429.5711    11624.385    1845.4149 
   65700    301.87703   -1153.9623    6401.2511    11696.428    1908.5051 
   65800    297.74512    -1154.325    6454.3766    11660.919    1896.7863 
   65900    299.16747   -1158.0354    6549.3846    11782.603    1917.9127 
   66000      303.242   -1152.9056    6337.1616    11662.556    1858.2584 
   66100    294.42262    -1152.614     6398.579    11535.853    1883.6629 
   66200    299.16982   -1156.7034    6411.4827    11646.084    1849.9216 
   66300    297.83795   -1152.1388    6440.3289    11651.041    1777.1227 
   66400     298.4983   -1155.4383    6381.4685    11602.988    1816.9477 
   66500    300.22624   -1156.8146    6543.8636    11800.922    1901.0087 
   66600    296.63028   -1161.9344    6471.4102    11646.526     1846.476 
   66700    300.05629    -1158.988    6364.3192    11615.574    1845.3137 
   66800    303.08394   -1164.8805    6376.7082    11686.751    1880.2505 
   66900    304.08669   -1162.0811    6525.9612    11860.226    1910.5901 
   67000    298.14946   -1164.8992    6423.3872    11627.994    1923.4136 
   67100    304.80566   -1165.1021    6384.8084    11731.411    1930.4306 
   67200    303.43088   -1169.0974    6385.8375    11699.075    1925.7416 
   67300      298.067   -1162.9849    6383.6945    11588.454    1884.3492 
   67400     297.6296   -1163.8874     6406.366    11600.878    1945.6215 
   67500    302.91708   -1169.0665    6420.8516    11723.144    1991.3106 
   67600    298.82833   -1175.5386    6315.6525    11524.123    1920.4262 
   67700    298.83804   -1172.6306    6431.0729    11642.658    1902.7505 
   67800    305.70239   -1168.6635    6507.8234    11870.022    1949.3564 
   67900    296.66616   -1172.3931    6452.1995    11617.624    1853.1287 
   68000     298.1891   -1170.0515    6386.8327    11587.134    1911.8805 
   68100    302.56826   -1166.9999     6309.764    11606.671    1979.7699 
   68200    297.37108   -1162.8192    6395.4651    11585.523    1885.3064 
   68300    301.20208   -1159.7793    6534.8323    11809.773    1904.5984 
   68400     296.6252   -1162.9119    6419.5451    11593.575    1920.2926 
   68500    299.87484   -1163.4419    6334.4103    11577.334    1881.7083 
   68600    298.78995   -1165.4686    6427.7387    11645.459    1821.2243 
   68700    299.19848   -1163.7261      6421.78     11649.97    1877.8661 
   68800    297.18505    -1157.291    6443.2567    11634.868    1884.2904 
   68900    308.81477    -1156.749    6439.5442    11880.149    1859.0727 
   69000    296.92716   -1156.7479    6414.4748     11601.12    1948.9747 
   69100    298.62564   -1155.0891    6402.0881    11626.677    1933.5651 
   69200    301.38538   -1155.6417    6406.5828    11689.577    1854.4187 
   69300     303.2838   -1151.1513    6510.9917    11839.033    1962.7205 
   69400    299.62552   -1154.5028    6484.7893    11731.326    1928.5741 
   69500    298.95666   -1151.0046    6358.3056    11594.051    1877.6604 
   69600    303.85935   -1156.2207    6437.4913    11772.759    1955.8065 
   69700    301.86554    -1157.009    6524.0425    11815.928    1984.8886 
   69800    297.83771   -1152.9607    6495.0096    11704.895    1914.6834 
   69900    297.66704   -1154.3515    6447.4806    11652.329    1927.7548 
   70000    300.53627   -1160.3678    6393.4953    11653.624    1904.5901 
   70100    301.16969   -1156.6307    6393.0553    11670.453    1882.0223 
   70200    302.83396   -1158.6874    6505.7194    11816.615    1938.8843 
   70300    297.01957   -1167.8593    6445.8229    11623.331    1914.0523 
   70400    299.68538   -1162.0679    6492.6998     11732.95    1932.8755 
   70500    304.62422    -1173.303    6395.5347    11730.061    1911.6096 
   70600    294.15996   -1168.1968    6340.7496    11456.829    1909.8743 
   70700    305.54324   -1163.9634    6457.2698    11820.769    2031.7097 
   70800     295.5775   -1169.1498     6407.817    11553.227    1902.7024 
   70900    303.17312   -1165.6879    6441.4512    11752.592    1965.4884 
   71000    296.54395   -1170.9748    6425.6634    11589.895    2026.6951 
   71100    296.78845   -1169.7508    6379.8486    11550.528     1936.404 
   71200    299.35879   -1168.7773    6403.9865     11630.55    1940.9176 
   71300    295.49629   -1174.1446    6342.5603    11481.241    1871.0291 
   71400    300.81139   -1173.4518    6405.8234    11658.745    1882.6415 
   71500    298.84627   -1168.2029    6496.0244    11712.214    1907.6639 
   71600    296.81133   -1170.8109    6466.3583    11636.466    1914.8106 
   71700    302.16586   -1166.6642    6435.4284    11724.074    1962.2194 
   71800    301.68707   -1169.4894    6347.4884     11623.08    2006.8446 
   71900    295.97781   -1161.6982    6358.8469     11520.26    1935.4205 
   72000    303.05437   -1161.4193    6411.7817    11724.654    1876.0151 
   72100    297.00591   -1159.7875    6483.4791    11668.767    1876.4295 
   72200    298.42435   -1163.2535    6410.5146    11622.639    1915.8828 
   72300     301.2182   -1158.5054    6465.9334    11742.493    1932.4451 
   72400    295.94229    -1161.006    6387.9682    11549.315    1861.1969 
   72500    302.28262   -1149.2677    6483.5713    11792.108     1953.724 
   72600    302.37039   -1156.3141    6429.1358    11732.501     1932.153 
   72700    302.09271   -1157.9993     6366.178    11661.926    1897.3025 
   72800    299.80966   -1152.6203    6508.9983    11761.351    2000.8373 
   72900    298.83792   -1154.8693    6411.7237    11641.068    1977.7423 
   73000     295.9357   -1149.7289    6436.7452    11609.229    1935.0782 
   73100    301.39994   -1151.7851    6368.0936    11655.256    1921.9811 
   73200    299.43548   -1151.9305    6429.5261    11674.575    1958.0521 
   73300     298.7232   -1158.4984    6540.5379    11763.802    1992.9836 
   73400    299.18679   -1154.1147     6425.259    11662.811    1929.0752 
   73500    297.49898   -1155.7494    6407.3389    11607.199    1933.1553 
   73600    298.46754   -1157.0761    6364.1967    11583.422    1962.5916 
   73700    301.22622   -1160.9049    6363.3276    11637.659    1819.6509 
   73800    299.26981   -1159.8271    6576.2919    11809.905    1939.8896 
   73900    299.72123   -1162.1405    6430.5806    11671.524    1906.5731 
   74000    299.32221   -1159.8345    6346.5048     11581.23    1894.8343 
   74100    301.75594   -1165.5399    6345.1043    11626.117    1894.7674 
   74200    299.67345   -1162.2466    6415.6282    11655.445    1850.6685 
   74300    303.13186   -1162.8827    6491.5433    11804.608    1868.1201 
   74400    299.90923   -1169.1299     6408.899     11646.87    1825.7983 
   74500    294.34377   -1165.6147    6349.8669    11472.455    1851.8171 
   74600    302.88533   -1168.2379    6337.0008    11639.443    1853.3436 
   74700    295.56232   -1168.6271    6517.1048    11662.713    1948.8088 
   74800    301.75128   -1166.5606    6485.1587    11765.051    1968.6328 
   74900    303.58572   -1171.7038    6363.1199    11677.059    1921.2624 
   75000    296.33882   -1159.4474     6269.616    11440.993    1837.8523 
   75100    304.49427   -1159.0978    6460.1952     11806.15    1965.1938 
   75200    301.61157   -1170.2081    6491.7647    11765.025    1931.9456 
   75300    297.08912   -1158.1256     6440.416    11629.144    1844.7986 
   75400    300.21939   -1162.9154    6531.5819    11782.393    1933.6597 
   75500    297.51363   -1160.3314    6320.2378    11515.829    1890.3438 
   75600    304.13964   -1167.6573    6406.0486    11735.868    1917.7759 
   75700    297.61435   -1169.8932    6381.5672    11569.748    1835.2185 
   75800    300.33361   -1162.7162    6480.5057    11733.956    1941.6382 
   75900    300.71992   -1153.7812    6382.1957    11652.834    1857.7217 
   76000    297.26058   -1157.8156    6509.5376    11702.238     1929.535 
   76100      302.226    -1158.471    6461.4539    11759.578    1971.6439 
   76200    298.81341   -1152.8251    6481.1458    11712.011    2004.9374 
   76300    294.76802   -1150.7284    6249.9004    11396.438     1890.767 
   76400    299.47816   -1156.6713    6309.6047    11550.825     1921.587 
   76500    299.27169   -1150.6971    6621.1951    11863.979    1923.9407 
   76600     298.5073   -1153.9868     6416.138    11639.302    1826.5814 
   76700    306.46201   -1158.6932    6455.9243    11844.322    1921.2896 
   76800    300.28925   -1157.6234    6424.6134    11682.209    1806.6181 
   76900    298.25673   -1162.2601    6366.4736    11576.011     1826.549 
   77000    304.57075    -1163.215    6463.7898    11807.262    1955.0068 
   77100    300.40341   -1156.0838    6414.6916    11676.266    1957.8399 
   77200    301.88664   -1151.6217    6416.5427    11714.266     1898.988 
   77300    295.94481   -1159.1785    6430.0145    11593.243    1846.2518 
   77400    300.38374   -1154.7559    6300.0108    11562.493    1861.5049 
   77500    302.72452   -1160.6089    6461.2694    11767.905    1939.6591 
   77600    301.04564   -1164.5155      6419.04    11685.903    1920.1371 
   77700    297.53049   -1160.9855    6334.9865    11530.283    1848.4806 
   77800    300.00797    -1162.025    6500.0428    11747.228    1875.3344 
   77900    297.86102    -1160.158    6407.1251    11610.311    1885.4887 
   78000    301.43727   -1163.6462     6289.627    11565.726    1871.1672 
   78100    299.09588    -1159.686    6466.5686    11696.607     1915.328 
   78200    300.78853   -1164.2018    6522.4608    11784.144    1981.0528 
   78300      300.699   -1165.4418    6411.4778    11670.009    1907.8105 
   78400    296.88746   -1166.3233    6398.3128    11574.535    1864.4721 
   78500    298.14514   -1166.6859    6449.3808    11652.108    1883.4589 
   78600    299.05615   -1159.7694    6427.8774    11656.984    1894.4657 
   78700    297.71737   -1164.5908    6502.0926    11697.777    1990.2924 
   78800    300.60021   -1162.6652    6316.4746    11575.672    1920.4297 
   78900     299.7233   -1161.9408     6404.956    11646.144    1960.4184 
   79000    296.67875   -1162.9355    6369.6064    11544.757    1925.7343 
   79100    300.71315   -1164.1931     6501.165    11761.247     2000.712 
   79200    296.27879   -1157.8093    6407.0372     11578.77    1956.5174 
   79300    303.17678   -1156.0007    6429.3618    11750.268    1962.9505 
   79400    297.69623   -1158.8802    6411.4338    11612.377     1897.639 
   79500    299.62146   -1157.1032     6368.199    11612.048     1952.213 
   79600    297.39093   -1160.9182    6459.0737    11651.457    1991.5058 
   79700    303.36038   -1162.0841    6391.5185    11710.263    1906.4454 
   79800    300.42157   -1161.9805    6502.3293    11758.395    1960.4223 
   79900    298.22202   -1163.3708    6377.5894    11585.275     1927.452 
   80000     302.4357   -1161.0571    6511.2955    11811.313    1961.7575 
   80100    298.29197   -1162.9963    6538.0704    11747.624    1957.6906 
   80200     303.3196   -1164.4566    6362.0987      11677.6    1924.0657 
   80300    293.21491   -1159.4666     6444.822    11549.442    1902.9559 
   80400    305.97958   -1150.9819     6484.688     11870.49    1966.1335 
   80500    304.66294   -1161.0489    6416.4893    11764.097    1980.0368 
   80600    300.47995   -1157.5105    6322.6357    11584.418     1892.933 
   80700    302.58311   -1162.3727    6425.1364    11726.987    1901.2433 
   80800    294.13058   -1166.2712     6457.077    11574.454    1891.5936 
   80900    301.32904   -1160.8629    6479.6288    11756.199    1926.2649 
   81000    303.70455   -1160.9362    6409.6416    11736.887    1907.1542 
   81100    300.16056   -1158.5369    6482.6867     11736.62    1897.6652 
   81200    306.00271   -1157.2347    6381.7951    11761.839    1941.3582 
   81300    297.96823   -1154.2938    6431.3126    11642.653    1884.6179 
   81400    300.92721   -1149.2289    6497.1593    11776.779    1938.7003 
   81500    299.31788   -1155.3539    6408.8834    11647.997    1925.2624 
   81600    301.61077   -1157.3814    6429.6375    11715.707    1943.5584 
   81700    299.12907   -1159.9087     6336.744    11567.269    1867.9943 
   81800    299.80973     -1153.12      6400.59    11652.445    1863.6566 
   81900    303.04852   -1156.5371    6560.9641    11878.594    1964.4936 
   82000    297.02053   -1158.4259    6422.8165    11609.778    1891.4315 
   82100    300.84248   -1157.8381    6404.3985    11673.598    1957.0817 
   82200    300.42143   -1156.9533    6456.3382    11717.428    1993.0212 
   82300    304.41336   -1155.2889     6460.642    11808.678    2002.0767 
   82400    297.86005   -1154.7033    6495.0934    11703.713    1984.3295 
   82500    301.53566   -1156.5868    6429.1173    11714.377    1910.8319 
   82600    296.80292   -1153.5718    6427.8166    11614.984    1869.7294 
   82700    300.09645   -1152.6228    6492.7741    11751.251    1970.9354 
   82800    302.40618   -1151.7642    6452.2049    11760.885    1914.6478 
   82900    299.78716   -1162.9955    6378.1361    11619.633    1910.6468 
   83000    291.09007   -1161.6063    6398.2451    11455.332    1931.8558 
   83100    306.03016    -1159.639    6470.1933    11848.419       1970.1 
   83200    296.99676   -1163.6353    6437.3067    11618.551    1941.8384 
   83300    299.05618   -1160.8684    6404.0305    11632.039    1957.7302 
   83400    299.06032   -1157.0022    6372.3247    11604.287    1927.2612 
   83500    303.21703   -1152.9074    6400.7998    11725.659    1938.2345 
   83600    298.71856    -1160.467    6382.8889    11604.086     1910.846 
   83700    304.57493   -1161.0795    6484.8202    11830.517    2013.0588 
   83800    297.24866   -1169.0907    6366.3585    11547.529    1875.4601 
   83900     296.1189   -1167.9847    6456.8361    11614.977     1928.706 
   84000    302.64413   -1164.0965    6369.7161    11671.147    1884.1407 
   84100    300.41832   -1162.0959    6461.7069    11717.587    1917.4609 
   84200    300.59778   -1166.6893    6306.8661    11561.987    1827.7484 
   84300    304.58293   -1165.1152    6473.9865    11815.818    1928.4612 
   84400    296.88945   -1161.5548    6400.8549    11581.888      1880.96 
   84500    304.20697   -1162.6329    6337.9212    11674.203    1855.8962 
   84600    299.77291   -1162.7291     6426.194    11667.653    1937.5701 
   84700    298.22233   -1162.8892    6434.2328    11642.406    1920.7126 
   84800    297.28911   -1167.0196    6340.3333    11524.439    1958.7534 
   84900    301.29353   -1168.3931    6422.9537    11691.235    1984.0975 
   85000    297.68548   -1164.3425     6424.318    11619.569    1930.4403 
   85100    299.41992    -1162.945    6432.3278     11666.03    1941.0249 
   85200    301.74452   -1162.3067    6324.1179     11608.12    1873.3222 
   85300    297.36598   -1162.8241    6468.6301    11658.574    1903.5315 
   85400    301.53041   -1162.4033    6514.7149    11794.046    1900.9072 
   85500    299.77292   -1162.9705    6354.3946    11595.613    1786.1063 
   85600    301.20293   -1165.0754    6398.1519    11667.815    1858.5992 
   85700    293.79261   -1166.6431    6466.4665    11576.252    1951.2216 
   85800    299.18071   -1167.1539    6401.6972     11626.08    1898.7485 
   85900    301.48953   -1161.6309    6536.1834    11815.414    1953.1066 
   86000    298.59918   -1158.4334    6472.8813    11693.561    1920.3268 
   86100     299.3443    -1156.805    6310.8531     11549.08    1918.0848 
   86200    301.33241   -1157.5879    6378.9654    11658.882     1923.915 
   86300    300.55877   -1157.2185    6445.8076    11709.566    1922.8196 
   86400    295.08266   -1158.7091    6498.4358    11643.715    1972.0415 
   86500     300.5569   -1159.3318    6497.9167    11759.522    1936.5907 
   86600    301.98733   -1155.6897    6384.8514    11680.658    1846.7921 
   86700    298.26895   -1162.3136    6419.3085    11629.053    1881.6497 
   86800     299.2943    -1161.359    6520.2805    11752.885    1920.0652 
   86900    302.01554   -1159.7462    6473.9595    11766.312    1875.1339 
   87000    301.24709   -1154.2241    6375.1606    11656.618    1940.5862 
   87100    293.59968    -1161.031    6486.9772    11598.253    1933.3829 
   87200    298.53248   -1155.2347    6419.2637    11641.717    1887.9142 
   87300     300.2943   -1153.7266    6417.0581    11678.658    1914.4738 
   87400     298.3342   -1157.5851    6478.3489    11694.216    1913.6533 
   87500    302.34973   -1159.8526    6430.6888    11730.074    1860.1655 
   87600    297.49216   -1161.4075    6429.3785    11623.435    1839.3901 
   87700    301.92273   -1164.0087    6486.6601    11772.767    1861.7928 
   87800    296.42988   -1157.0288    6418.5813    11594.322    1881.2224 
   87900    297.23518   -1160.6984     6455.773    11645.048    1939.4554 
   88000    302.60383   -1156.9071    6334.8481    11642.607    1875.0762 
   88100    299.47979   -1162.8517    6487.3749    11722.449    1927.9449 
   88200    301.34619   -1161.9234    6426.1368    11702.012    1926.6611 
   88300    301.84898   -1163.4249    6377.3153    11662.431    1971.8657 
   88400    299.47017   -1161.6022    6494.6387    11730.757     2024.335 
   88500    300.42628    -1165.471    6445.7102    11698.386     1959.456 
   88600    299.49487   -1162.4571    6451.0965    11686.888    1944.6634 
   88700    301.46328   -1168.3412    6297.3196    11569.279     1858.541 
   88800    301.56015   -1166.4277    6405.4783     11681.42    1886.2947 
   88900    298.21231   -1161.1654     6550.431    11760.114    1918.1781 
   89000    303.11787   -1167.2048    6377.9217    11686.365    1891.3785 
   89100     298.6447   -1164.7914    6374.9911    11590.285    1898.3651 
   89200    303.65047   -1165.8355    6565.3369    11886.528    1996.9153 
   89300    299.29975    -1168.899    6406.3352    11631.516    1948.8359 
   89400    297.48239   -1167.9033    6356.4573    11543.809    1965.6705 
   89500    297.81659   -1167.2548    6460.9657    11656.105    1937.3018 
   89600    300.20009   -1166.7361    6410.2471    11656.825    1889.7329 
   89700     304.0984   -1169.9028    6351.6475     11678.34    1852.4303 
   89800     295.5149   -1167.9568     6437.242    11582.508    1830.7502 
   89900    302.34306   -1170.3213     6411.356     11700.13    1856.3532 
   90000      297.816   -1164.5608    6305.9708    11503.792    1786.1435 
   90100    301.07611   -1162.4504    6451.3473    11720.926    1867.2297 
   90200    297.31678   -1160.7186    6512.8323    11703.831    1931.1052 
   90300    301.73754   -1162.5445    6427.9868    11711.602     1901.101 
   90400    296.37702   -1166.0989    6241.2945    11406.836    1921.7433 
   90500    299.99506   -1163.1839    6428.6027    11674.353    2020.5586 
   90600    298.55876   -1165.9263     6381.852    11594.176    1899.4067 
   90700    298.01742   -1158.2766    6466.0615     11674.47    1950.7368 
   90800    302.34805   -1158.8954    6494.5504    11794.857    1945.6578 
   90900    300.87226   -1161.3209    6411.7166     11678.07     1938.855 
   91000    300.03817   -1161.2609    6355.6493    11604.244     2006.112 
   91100    302.91484   -1164.5141    6380.4706    11687.267    1960.6412 
   91200    299.62321   -1156.4286    6554.3653    11798.927    1941.1743 
   91300    301.94175   -1161.8186    6417.6244    11706.328    1854.6184 
   91400    302.39307   -1156.9612    6507.5401    11810.743    1931.4176 
   91500    298.97747   -1160.3724    6426.9679     11653.79    1863.0801 
   91600    299.02526   -1159.6699    6393.7874    11622.333    1903.9405 
   91700     299.2769   -1155.5204    6398.2192    11636.291    1903.4274 
   91800     294.9302   -1161.9182    6489.5279    11628.341    1899.3774 
   91900    298.62132   -1165.9115    6404.0036    11617.678    1905.9001 
   92000    300.06683   -1162.3054    6429.5612    11677.723    1965.6275 
   92100     299.2175   -1159.7413    6289.4812    11522.063    1879.9087 
   92200    299.50007   -1163.6612    6510.2333    11744.932    1963.8655 
   92300    297.91734   -1167.4711    6426.3172    11623.393    1867.9984 
   92400    304.79342   -1166.5674    6396.1872    11741.063    1919.6739 
   92500     299.6307   -1168.2335     6352.841    11585.758    1842.5036 
   92600    301.63714   -1165.1022    6525.7411    11804.654    1899.2892 
   92700     298.0985     -1170.49    6488.9577    11686.885    1907.4363 
   92800    299.76537   -1164.9454    6370.0199    11609.102    1842.7371 
   92900    297.19049   -1162.6116    6432.5654    11618.973    1851.5978 
   93000    304.66831   -1167.2605    6436.7843    11778.295    1880.3495 
   93100    297.03628   -1165.9874    6400.7652    11580.502    1875.0106 
   93200      300.103   -1167.9875    6391.8007    11635.053    1922.2888 
   93300    303.44882   -1167.4466    6496.5763    11811.848    1858.1092 
   93400    294.49027   -1171.9625     6454.456    11573.826    1857.3706 
   93500    300.14424   -1167.0719     6549.205    11794.254    1945.6069 
   93600    297.40248   -1165.0395    6279.7724     11468.28    1850.8787 
   93700    297.62604   -1162.7818    6335.7535    11531.295    1933.1892 
   93800    301.20539   -1158.2837     6410.636    11687.143    1927.2816 
   93900    296.86864    -1158.862    6566.5186      11749.8    1960.6609 
   94000     301.1317   -1166.7469    6371.2998     11637.77    1843.9682 
   94100     295.8437   -1167.3058    6415.8412    11568.782     1858.866 
   94200    299.37765   -1163.2997    6434.9294    11667.374    1825.1703 
   94300    299.88761   -1162.3322    6509.2975    11753.604    1801.3895 
   94400    305.84849    -1165.328    6358.2792    11726.935     1882.823 
   94500    300.11917   -1165.1956    6403.5894    11649.979    1890.9588 
   94600    294.59629   -1161.9906    6520.6221    11652.229    1913.8692 
   94700    301.93189   -1155.7562    6456.0566    11750.612    1885.2471 
   94800    300.15327   -1158.0214    6350.8901    11605.183    1929.6356 
   94900    305.35108   -1157.6763    6360.6984    11726.379    1901.2692 
   95000    308.32328   -1160.9174    6545.0498    11970.986    1971.9366 
   95100    305.87757    -1159.035    6523.9673    11899.537    1938.4683 
   95200    298.18167   -1167.2178     6339.412    11542.388    1898.1229 
   95300    299.50581   -1169.1271    6432.1416    11661.496     1918.427 
   95400    299.36426   -1159.2654    6490.7893    11726.982    1880.9213 
   95500     302.1301    -1164.587    6472.0711     11762.03    1904.1499 
   95600    300.50797   -1156.4579    6444.9001    11708.334    1921.5845 
   95700    295.58161    -1160.999    6443.8326    11597.481    1927.7868 
   95800    302.04619   -1163.4439    6512.1269    11801.436    1992.3191 
   95900    301.81148   -1162.4833     6389.872    11675.128    1926.2785 
   96000    301.04614   -1162.8214    6365.9495    11634.517    1892.2357 
   96100    301.42633   -1167.0617    6495.0427    11767.492    1964.7247 
   96200    300.43609   -1169.1305    6469.6436    11718.869    1875.9548 
   96300    297.02533   -1167.7853    6512.0455    11689.751    1877.8086 
   96400    303.11822   -1167.7085    6411.3955    11719.343    1886.7886 
   96500    298.79007   -1165.3734    6415.1733    11632.991    1960.2434 
   96600    298.76868   -1166.0311    6417.0644    11633.768    1997.3061 
   96700    298.36119   -1164.2018    6461.9791    11671.806    1967.3038 
   96800    294.07319   -1164.3918    6388.7004    11506.731    1854.6168 
   96900    303.56251   -1163.1003    6445.8568    11767.904    1906.6726 
   97000    295.79211   -1170.7117    6421.7832    11570.216    1914.4217 
   97100     302.8218   -1165.4915    6328.5148    11632.346    1915.9919 
   97200    299.99393    -1168.959     6479.699     11719.65    1962.0881 
   97300    300.78621   -1166.7554    6525.5442    11784.625    1904.0219 
   97400    300.54696   -1162.0948     6405.474    11664.104    1920.4368 
   97500     300.0695   -1163.7648    6406.8045    11653.564    1927.7485 
   97600    294.77646   -1163.0824    6413.9298    11548.294    1918.3939 
   97700    301.73078   -1166.0559    6335.9611     11615.92    1901.6895 
   97800    297.05371   -1164.8588    6461.6707    11642.909    1912.1896 
   97900    301.91069   -1163.3925    6405.5625    11692.029    1902.5407 
   98000    302.42088   -1156.6109    6434.4338    11738.581    1909.2604 
   98100    297.14222   -1160.1321    6357.3152    11545.171    1889.4885 
   98200    299.46166   -1164.6803    6393.5118     11626.37    1888.2153 
   98300     297.3646   -1164.8502    6353.8783    11541.766    1864.3881 
   98400    304.40804   -1162.7535    6459.5347    11799.992    1929.4924 
   98500    298.85367   -1164.2113    6504.0191    11724.358    1924.8219 
   98600    305.19589   -1161.4487    6436.2487    11794.842    1882.3521 
   98700    301.26938   -1156.4279    6548.0148    11827.745    1981.8897 
   98800    298.29664   -1163.9192    6356.9099    11565.641    1897.3105 
   98900    299.08305   -1155.6929    6462.4873    11696.245    1919.2911 
   99000    295.68834    -1159.107    6528.5052    11686.326    1874.4741 
   99100    300.87315     -1165.07    6447.8175    11710.441    1928.5922 
   99200    299.25509   -1160.9567    6400.2913     11632.46    1886.6096 
   99300    298.26633   -1162.2102    6403.1944    11612.987     1863.492 
   99400    304.08417   -1166.0751    6337.4991    11667.716     1891.341 
   99500    296.62469   -1162.3142    6490.8605    11665.478    1897.5151 
   99600    302.86976    -1160.942    6453.5221    11762.928    1850.2964 
   99700    297.30289   -1160.5091    6457.3621    11648.273    1936.6731 
   99800    301.10953   -1163.5588    6317.5945    11586.779    1914.3351 
   99900    298.82514   -1155.5086    6357.5979     11586.03    1868.9793 
  100000    301.82433   -1159.8732    6473.3041    11761.445    1961.2704 
  100100    297.41379   -1164.2207    6427.2594    11616.828    1926.9393 
  100200    301.00558   -1156.4588     6433.767    11707.831    1915.0817 
  100300    299.74949   -1161.7185    6461.3612    11703.331    1958.3645 
  100400    300.68206   -1160.0331    6406.5042    11670.082    1928.5586 
  100500    301.46827   -1158.5858     6379.997    11661.818    1797.4482 
  100600    300.26727    -1163.247    6551.4409    11802.943    1917.2405 
  100700    300.86796   -1161.2187    6422.5579    11688.921    1898.3586 
  100800    298.49067    -1159.652    6343.2698    11560.413     1875.018 
  100900     297.0877   -1160.8551    6529.5865    11715.554    1954.5786 
  101000    299.78618   -1162.1941    6444.8434    11687.121    1904.5805 
  101100    293.84046   -1163.1438    6483.7393    11598.046      1949.12 
  101200    295.96495   -1158.7373    6363.1805     11527.28    1898.3756 
  101300    298.95681   -1159.9546     6381.156    11607.955    1926.4357 
  101400    303.82955   -1166.1672    6446.1751     11770.86    1909.6208 
  101500    297.80482   -1167.1676     6478.665     11673.64    1901.6432 
  101600     302.5716   -1171.0071    6374.9212    11667.892    1857.2785 
  101700    302.27038   -1166.1499    6480.3685    11771.762    1928.8753 
  101800    299.56777   -1162.5698    6488.6292    11725.865    1941.8954 
  101900    298.89782   -1157.7488    6403.8697    11631.614    1938.5606 
  102000    300.10826   -1164.5314    6376.8832    11623.704    1979.2287 
  102100    298.58779   -1161.7772    6409.2444    11626.337    1922.7763 
  102200    303.83135   -1166.6437    6378.7978    11703.045    1867.1969 
  102300    301.46445    -1163.889    6391.7246    11668.161    1897.8012 
  102400    302.32775   -1164.1775    6401.4745    11696.065    1943.7527 
  102500    300.48641   -1168.5939    6529.5178    11780.355    1951.2549 
  102600    297.76166   -1168.6672    6304.6977    11497.251    1828.3897 
  102700    301.03346   -1175.3237    6353.2331    11609.027    1841.7321 
  102800    299.29429   -1165.8601    6480.9537    11709.057    1878.6948 
  102900    301.96843   -1164.2814    6455.0635    11741.874    1884.9643 
  103000    298.32051   -1164.1587    6399.0945    11608.096    1945.3979 
[...]
  588400    299.93201   -1160.3496    6519.8095    11767.047    1947.2913 
  588500    302.65523    -1157.617    6458.9011    11767.049     1929.185 
  588600    300.26008    -1170.173    6522.6068     11767.03    1963.2757 
  588700    302.71891   -1164.7227    6464.7037    11767.106    1944.9358 
  588800    301.92486   -1166.5798    6483.4985     11767.08    1986.2444 
  588900    298.72252   -1166.1306    6551.4212    11767.039     1953.757 
  589000    301.67132   -1166.0608    6488.3524    11767.036    1958.3248 
  589100    303.28462   -1167.5684    6455.3617    11767.004    1899.4404 
  589200    302.95343   -1161.1125    6455.9151    11766.938    1880.5519 
  589300    304.96084   -1166.3764    6418.3143    11766.958    1905.9363 
  589400    303.79443   -1160.4476    6437.3478    11767.002    1930.6251 
  589500    300.53114   -1169.4086    6516.0122     11766.99    1956.8349 
  589600    304.56191   -1162.5254    6423.0806    11767.053    1921.6779 
  589700    301.89281   -1161.1876    6478.8133    11767.102    1923.9389 
  589800    304.70321   -1164.6272    6422.1265    11767.016    1874.7869 
  589900    301.59073   -1162.3134    6486.2414    11766.951    1951.7418 
  590000    307.46318   -1165.4153    6364.0183    11767.082    1961.6482 
  590100    298.00502   -1159.1395    6559.7517    11767.032    1989.1708 
  590200    303.43894   -1157.0287    6441.4506    11766.929    1880.4871 
  590300    300.87213    -1164.391    6503.7204    11767.001    1936.8804 
  590400    302.93557   -1163.2816    6458.6077     11767.08    1957.3857 
  590500    304.05573   -1164.3898    6435.7909    11767.085    1916.0305 
  590600    300.47947   -1162.3838    6510.0675    11766.967    1995.8231 
  590700    304.28231   -1160.8651    6427.2862    11766.946    1909.0041 
  590800    300.47327   -1159.7163    6507.5147    11766.949    1957.0506 
  590900    300.40046     -1161.12    6510.3751     11766.85    1933.7943 
  591000    305.74474   -1160.6951    6395.7313    11766.803    1907.8039 
  591100    301.73965   -1156.7829    6477.4593    11766.881    1911.2994 
  591200    304.38731    -1161.268    6425.3829    11766.883    1883.1707 
  591300    300.09517   -1163.7256    6519.5577    11766.905    1902.5118 
  591400    301.65024   -1162.0334    6484.6228    11766.884    1826.1086 
  591500    304.59424    -1161.021    6420.6774    11766.845    1827.7101 
  591600    304.42648   -1157.0105    6420.3064      11766.9    1863.7841 
  591700    303.97272   -1163.3694    6436.4956    11767.037    1884.3664 
  591800     300.2419   -1158.7096    6511.4251    11766.923    1909.6739 
  591900    300.42723   -1157.4014    6506.2175    11766.983    1884.0516 
  592000    301.11537   -1158.7815     6492.859    11766.945     1954.999 
  592100    302.79692   -1161.8245    6459.9494    11766.916    1942.1582 
  592200    300.04551   -1160.7067    6517.7062    11767.012    1935.8385 
  592300    303.91095   -1165.9254    6440.3444     11767.01    1922.3128 
  592400    300.36344   -1163.9679    6514.1589    11766.995    1948.2697 
  592500    300.35725   -1161.0343    6511.4285    11767.066    1922.0595 
  592600    304.93986   -1166.8778    6419.3496    11767.044    1882.1532 
  592700    303.50285    -1164.882    6448.0333    11767.024    1946.6139 
  592800    301.82314   -1167.2424    6486.3549    11767.101      1964.66 
  592900    302.54854   -1168.0726    6471.7186    11767.131    1892.3829 
  593000    302.34403   -1164.0893      6472.15    11767.177    1970.2976 
  593100    303.88059   -1168.6486    6443.9189    11767.213    1889.3616 
  593200    302.33907   -1164.6621     6472.781    11767.129    1899.8252 
  593300    302.50448   -1169.0287     6473.665     11767.18    1963.1802 
  593400    299.55754   -1160.4303     6528.077    11767.234    1970.6523 
  593500    306.17438   -1171.1365    6397.4411     11767.25    1888.1203 
  593600    299.48825   -1165.2761    6534.3554    11767.186    1927.3453 
  593700    305.28545   -1169.0828    6414.2826    11767.155    1957.1047 
  593800    300.55124   -1166.5074    6512.8748    11767.183      1954.15 
  593900    303.24778   -1163.3589    6452.0595    11767.124    1907.0167 
  594000    301.99752   -1167.3487    6482.6939    11767.059    1915.9962 
  594100    306.38485   -1167.5263    6389.0978    11767.014    1850.7631 
  594200    302.75748   -1164.1747    6463.3137    11767.088    1913.0744 
  594300    300.34763   -1164.5875    6515.1615     11767.04    1943.9802 
  594400    303.40329   -1158.2142    6443.4121    11766.944    1920.1534 
  594500    300.44603   -1161.5743    6509.9778    11766.972    1908.9405 
  594600    304.30084    -1161.214    6427.2191    11766.926     1980.113 
  594700    304.58776   -1162.9161    6422.7308    11766.865    2028.7416 
  594800    304.04374   -1157.7024     6429.125    11766.851    1868.1108 
  594900    299.70929   -1161.1809    6525.3282    11766.977    1926.7746 
  595000    300.15188   -1155.3932    6510.0549    11766.946    1939.5435 
  595100    302.09288   -1157.3672    6470.4468     11766.83    1943.0776 
  595200     301.3181   -1158.3419    6488.1027     11766.96    1982.4373 
  595300    302.63976   -1153.2554    6454.7058    11766.885    1913.6122 
  595400    300.45637   -1161.3525    6509.4524    11766.889    1919.2837 
  595500    301.26813   -1156.8408    6487.5922    11766.883      1888.85 
  595600    304.98203   -1159.0739    6410.5412     11766.94    1925.6321 
  595700    302.35783   -1163.1985    6470.7707    11766.983    1940.5072 
  595800     302.9409   -1160.8588    6455.9252    11766.934     1897.553 
  595900    296.92916   -1160.4221    6583.9012    11766.915    1897.4248 
  596000    301.73772    -1163.133    6483.9377    11766.968    1900.9457 
  596100    302.61437   -1161.6197    6463.7169    11766.989    1932.3335 
  596200    303.44936   -1163.1962    6447.4628    11766.997    1977.3997 
  596300    301.03807   -1159.9537    6495.8404    11767.103    2011.5505 
  596400    300.72399   -1161.8187    6504.3906    11767.078    1967.3124 
  596500    301.10575   -1167.2531    6501.6755    11767.085     1920.591 
  596600    302.56479   -1165.9551    6469.2765    11767.154    1974.4493 
  596700    303.58677   -1168.4697    6449.9042      11767.1    1986.4638 
  596800     300.9308   -1171.0802    6509.2377    11767.082    1983.8934 
  596900    302.86395   -1165.5171    6462.4373    11767.144    1928.3205 
  597000    303.22873   -1162.3945     6451.603    11767.225    1909.7684 
  597100    301.15669   -1165.5245    6498.8728    11767.099    1947.7498 
  597200     306.4433   -1168.2224    6388.7027    11767.171     1948.074 
  597300    301.49564   -1166.8607    6493.0604    11767.191    1925.6194 
  597400    299.88957   -1166.2872    6526.7445    11767.138    1905.6693 
  597500    298.98732   -1162.5664    6542.3026    11767.142    1966.7694 
  597600    307.06615   -1160.4712    6367.6626    11767.189     1936.643 
  597700    304.50949   -1170.1056    6431.8237    11767.096     1904.388 
  597800    299.95431   -1164.8892    6523.9109    11767.085     1907.955 
  597900    299.99138   -1158.6374     6516.834    11767.052    1891.9129 
  598000    304.80999   -1157.9434    6413.2032    11767.057    1865.5057 
  598100     298.7104   -1161.8877    6547.4028    11767.004    1989.9912 
  598200     301.7137   -1164.8337    6486.2108    11767.027    1956.1789 
  598300     300.9755   -1163.1708     6500.218    11766.927     1936.353 
  598400    300.96889   -1163.0687    6500.3407    11767.011    1982.7932 
  598500    304.29213   -1158.1309    6424.2593    11766.863     1893.749 
  598600    298.88642   -1158.0947    6539.7042    11766.859    1935.9985 
  598700    302.76308   -1158.6357    6457.4348    11766.868    1958.1077 
  598800     303.7343   -1157.4168    6435.4894     11766.89    1933.0983 
  598900     301.7927   -1159.1098    6478.5632    11766.791    1829.3082 
  599000    303.47747   -1157.3079    6440.8773      11766.9    1894.0241 
  599100    304.10763   -1162.8136    6432.9854    11766.965    1918.1233 
  599200    297.35381   -1162.1442    6576.5603    11766.924    1917.0269 
  599300    305.45563   -1159.0022    6400.2973    11766.886    1957.5236 
  599400     302.3563   -1164.7604     6472.359    11766.977     1965.957 
  599500    299.11841   -1163.7275    6540.4625    11766.941    1940.6934 
  599600    304.41546   -1161.7011    6425.2949    11766.963    1981.0664 
  599700    301.26446   -1167.9515    6498.9636    11767.065    2008.3713 
  599800     304.2676   -1162.1114    6428.9063    11767.005    1919.9102 
  599900    303.74015   -1163.1526    6441.2601     11767.05    1922.9209 
  600000    305.01289   -1163.5145    6414.4621     11767.08     1931.442 
Loop time of 280.302 on 8 procs for 300000 steps with 7168 atoms

Pair  time (%) = 137.992 (49.2296)
Bond  time (%) = 81.0505 (28.9154)
Neigh time (%) = 19.705 (7.02992)
Comm  time (%) = 31.2943 (11.1645)
Outpt time (%) = 0.493524 (0.176069)
Other time (%) = 9.76711 (3.48449)

Nlocal:    896 ave 901 max 889 min
Histogram: 2 0 0 0 1 0 0 2 1 2
Nghost:    2843.5 ave 2853 max 2837 min
Histogram: 1 3 0 1 1 0 0 0 0 2
Neighs:    23628.9 ave 24060 max 23344 min
Histogram: 3 0 1 0 1 1 0 0 1 1

Total # of neighbors = 189031
Ave neighs/atom = 26.3715
Ave special neighs/atom = 157.056
Neighbor list builds = 3067
Dangerous builds = 0
# −−−−−−−−−−−−−− Flux calculation in nve −−−−−−−−−−−−−−−
reset_timestep  0
compute         PE all pe/atom
compute         KE all ke/atom

variable        CX atom (vx*(c_KE+c_PE))
compute         Jcx all reduce sum v_CX

variable        CZ atom (vz*(c_KE+c_PE))
compute         Jcz all reduce sum v_CZ

variable        CY atom (vy*(c_KE+c_PE))
compute         Jcy all reduce sum v_CY

compute         SA all stress/atom virial

variable        VX atom -(c_SA[1]*vx+c_SA[4]*vy+c_SA[5]*vz)*1.4593e-5
compute         Jvx all reduce sum v_VX

variable        VZ atom -(c_SA[3]*vz+c_SA[6]*vy+c_SA[5]*vx)*1.4593e-5
compute         Jvz all reduce sum v_VZ

variable        VY atom -(c_SA[2]*vy+c_SA[6]*vz+c_SA[4]*vx)*1.4593e-5
compute         Jvy all reduce sum v_VY

variable        Jx equal (c_Jcx+c_Jvx)/vol
variable        Jz equal (c_Jcz+c_Jvz)/vol
variable        Jy equal (c_Jcy+c_Jvy)/vol

fix             JJTx all ave/correlate $s $p $d                 v_Jx type auto file J0Jt_tx.dat ave running
fix             JJTx all ave/correlate 5 $p $d                 v_Jx type auto file J0Jt_tx.dat ave running
fix             JJTx all ave/correlate 5 20000 $d                 v_Jx type auto file J0Jt_tx.dat ave running
fix             JJTx all ave/correlate 5 20000 100000                 v_Jx type auto file J0Jt_tx.dat ave running

fix             JJTz all ave/correlate $s $p $d                 v_Jz type auto file J0Jt_tz.dat ave running
fix             JJTz all ave/correlate 5 $p $d                 v_Jz type auto file J0Jt_tz.dat ave running
fix             JJTz all ave/correlate 5 20000 $d                 v_Jz type auto file J0Jt_tz.dat ave running
fix             JJTz all ave/correlate 5 20000 100000                 v_Jz type auto file J0Jt_tz.dat ave running

fix             JJTy all ave/correlate $s $p $d                 v_Jy type auto file J0Jt_ty.dat ave running
fix             JJTy all ave/correlate 5 $p $d                 v_Jy type auto file J0Jt_ty.dat ave running
fix             JJTy all ave/correlate 5 20000 $d                 v_Jy type auto file J0Jt_ty.dat ave running
fix             JJTy all ave/correlate 5 20000 100000                 v_Jy type auto file J0Jt_ty.dat ave running

run             1000000
Memory usage per processor = 13.8919 Mbytes
Step Temp E_pair E_mol TotEng Press 
       0    305.01289   -1163.5145    6414.4621     11767.08     1931.442 
     100    300.13856   -1167.2541    6522.3648     11767.11    1916.3152 
     200    300.14175   -1166.3604    6521.5689    11767.276    1943.9205 
     300    305.75084   -1165.2343    6400.5627    11767.226    1945.6348 
     400    300.39886   -1164.9325    6514.4586    11767.087    1969.1103 
     500    305.54951   -1167.1175    6406.6656    11767.144      1873.71 
     600    300.14907   -1164.7725    6519.7534    11767.205     1936.375 
     700    301.64287   -1163.0797    6485.9964    11767.054    1880.1723 
     800    301.61605   -1164.0635    6487.5635    11767.064    1868.3579 
     900    305.23727   -1166.9006     6413.078    11767.103    1964.9822 
    1000    303.88045   -1164.5631    6439.6005    11766.977    1921.4524 
    1100    299.52078   -1163.7837    6531.9082    11766.926    1859.1681 
    1200    301.53043   -1166.1558    6491.4965    11767.076    1929.7262 
    1300    301.70756   -1163.2067    6484.7801    11767.092    1953.6888 
    1400    302.39442   -1156.8622    6463.7306    11767.061    1932.1391 
    1500    301.64159   -1153.0294    6475.8157    11766.896    1997.3269 
    1600    302.93263   -1165.5395     6460.746    11766.897    1954.4461 
    1700    303.01804   -1157.4151    6450.8781    11766.978    1872.7359 
    1800    301.99554   -1155.7561    6471.0032    11766.918    1880.5516 
    1900    302.02464   -1160.6282    6475.2144    11766.879     1896.217 
    2000    302.04214   -1160.4891    6474.7716    11766.949    1880.5121 
    2100    302.12337   -1161.0485    6473.6272    11766.981    1866.5222 
    2200    302.11119   -1160.6045    6473.3636    11766.901    1849.1984 
    2300    302.17296   -1162.0907    6473.6189     11766.99    1885.6649 
    2400    298.72841   -1158.0722    6543.2369    11767.039    1924.5575 
    2500    307.44055   -1159.6383    6358.6335    11766.991    1890.3959 
    2600    301.73141    -1159.939    6480.9942    11767.084    1860.2912 
    2700    300.74594   -1163.2899    6505.4388    11767.124    1793.0958 
    2800    298.91616   -1158.5387    6539.7865    11767.133    1868.5175 
    2900    301.64916   -1168.5137    6491.4068    11767.165    1886.0834 
    3000    306.03451   -1167.4799    6396.6441    11767.122    1954.6413 
    3100    303.29423   -1169.9909    6457.7235    11767.149    1876.7358 
    3200    300.32068   -1167.9385    6519.1936    11767.146    1858.5425 
    3300    305.13252   -1162.3079    6410.7557    11767.136    1897.9761 
    3400    301.47945   -1171.7265    6498.2512    11767.171    1949.0393 
    3500    300.18487   -1162.5014    6516.6403    11767.128    1931.5712 
    3600    303.52293   -1165.9322    6448.8086    11767.178    1994.4168 
    3700    304.16917   -1169.5789    6438.5489    11767.078    1945.1068 
    3800    302.71967   -1167.2517    6467.2028    11767.092    1820.5216 
    3900    301.52362   -1164.3679    6489.8929    11767.115     1856.211 
    4000    303.52204   -1166.7576    6449.5637    11767.089    1909.4142 
    4100    301.73638   -1159.9972    6480.9757    11767.113    1864.5134 
    4200    303.16701   -1167.2169    6457.6987     11767.18    1849.4233 
    4300    303.37228    -1162.201    6448.2179      11767.1    1864.0243 
    4400    302.19913   -1161.2224    6472.2285    11767.027    1788.5985 
    4500    301.47729   -1160.6395    6487.0284    11766.989    1770.3313 
    4600     303.6704   -1154.8999    6434.3599    11766.912    1887.9776 
    4700    298.14794   -1160.5902    6558.1098    11766.993    1920.1526 
    4800    305.56083    -1156.679    6395.8224    11766.982     1867.981 
    4900    299.30168   -1159.3327    6532.1481    11766.937    1945.0826 
    5000    302.08661   -1161.7763    6475.0418    11766.882     1906.856 
    5100    301.63777   -1163.3417    6486.3026    11766.989     1943.431 
    5200     304.7039   -1160.2695    6417.7322    11766.994    1918.0239 
    5300    296.99654   -1159.5652    6581.6452    11766.955    1909.7728 
    5400    302.93561   -1159.6713    6454.9511    11767.034     1895.659 
    5500    300.97867   -1161.6965    6498.7779    11767.029    1865.4603 
    5600    300.14226   -1159.4047    6514.3192    11766.993    1838.3406 
    5700    301.95111   -1155.1424     6471.466    11767.046    1889.0303 
    5800    301.42977   -1163.1234    6490.6628    11767.124    1935.6766 
    5900    304.62167   -1167.1558    6426.4096    11767.028    1848.9763 
    6000    301.36393   -1165.4592    6494.3738    11767.092    1893.5276 
    6100    303.70094   -1171.5916    6450.6248    11767.138    1888.5925 
    6200    301.68322   -1162.6542    6484.7773    11767.122    1911.3341 
    6300    304.15646   -1166.1564    6435.3774    11767.057    1871.5576 
    6400    302.55092   -1160.9795     6464.599    11767.156    1843.5242 
    6500    301.33362   -1161.0252    6490.6263    11767.132    1857.8344 
    6600    301.75297   -1161.8995    6482.4628    11767.052    1835.7508 
    6700    301.07538   -1165.7021    6500.8154    11767.127    1877.5881 
    6800    302.74863      -1168.1    6467.5532    11767.213    1934.1794 
    6900    303.18227   -1164.7688    6454.9848     11767.24    1834.5832 
    7000    300.52895   -1166.6718    6513.4966    11767.165    1867.3808 
    7100    303.41296   -1166.1094    6451.2281    11767.071    1869.4414 
    7200    303.34711   -1160.4729    6446.9795    11767.052    1871.6892 
    7300    301.14514   -1157.5619    6491.0428    11766.985    1938.1077 
    7400    301.00048   -1160.0125    6496.5392     11766.94    1843.1219 
    7500    303.56279   -1151.3917    6433.2173    11766.979    1861.6706 
    7600    303.71273    -1155.072    6433.6571    11766.942    1906.7514 
    7700    304.97932   -1161.2588    6412.7989    11766.955    1880.3729 
    7800    299.89415   -1157.7612    6517.9747    11766.992    1921.4098 
    7900    303.32852   -1159.7052    6446.4929    11766.936    1886.1917 
    8000    300.27332   -1162.2502    6514.3177    11766.946    1868.3482 
    8100    303.59615   -1160.7856    6441.9131    11766.993    1823.0855 
    8200    299.85305   -1158.3784    6519.3369    11766.859    1822.3506 
    8300    303.93269   -1154.0717    6427.9058     11766.89    1925.8291 
    8400    303.90193   -1159.8627    6434.2681    11766.804    1905.0149 
    8500    301.35194   -1156.2403    6485.2793    11766.961    1896.5209 
    8600    297.51578   -1158.5291    6569.5454    11766.985    1887.2472 
    8700    304.84843   -1158.0965    6412.4808    11767.003    1861.5284 
    8800    301.80176   -1160.9621    6480.4288    11766.998    1943.3149 
    8900    300.92874   -1163.9147    6502.1021    11767.068    1953.5741 
    9000    300.46574   -1163.4907    6511.6565    11767.155    1913.0007 
    9100    304.34317     -1166.04    6431.3422    11767.127    1833.5594 
    9200    300.78848   -1167.6556    6508.8691    11767.098    1899.5062 
    9300    302.17482   -1162.2561    6473.8496    11767.095    1872.3245 
    9400    299.19085   -1168.9525    6544.3889     11767.19    1917.8412 
    9500     306.4694    -1165.669    6385.5294    11767.109    1911.1382 
    9600    301.06917   -1164.5672    6499.8805    11767.194    2010.3716 
    9700    301.45613   -1165.9203    6492.9532     11767.18    1913.6924 
    9800    303.82594    -1165.307    6441.7016     11767.17    1918.1638 
    9900    298.12748   -1158.6181    6556.7916     11767.21    1971.1114 
   10000    303.62733   -1170.4035    6450.9945    11767.123    1938.0103 
Loop time of 1405.91 on 8 procs for 1000000 steps with 7168 atoms

Pair  time (%) = 564.71 (40.1668)
Bond  time (%) = 297.353 (21.1502)
Neigh time (%) = 65.7189 (4.67447)
Comm  time (%) = 106.99 (7.60999)
Outpt time (%) = 0.00366136 (0.000260427)
Other time (%) = 371.135 (26.3982)

Nlocal:    896 ave 900 max 889 min
Histogram: 1 0 1 1 0 0 0 1 1 3
Nghost:    2845.25 ave 2851 max 2839 min
Histogram: 2 0 1 1 0 0 0 1 1 2
Neighs:    23616.1 ave 23965 max 23347 min
Histogram: 2 2 0 1 0 0 0 0 1 2

Total # of neighbors = 188929
Ave neighs/atom = 26.3573
Ave special neighs/atom = 157.056
Neighbor list builds = 10206
Dangerous builds = 0
