LAMMPS (11 Jun 2012)
# Initialization
atom_style      full
units           real
variable        T equal 300
variable        dt equal 1.0
variable        seed equal 123465
variable        radius equal 0.5
variable        sizet equal 4
variable        sizeb equal -4
variable        p equal 20000    # correlation length
variable        s equal 5        # sample interval
variable        d equal $p*$s    # dump interval
variable        d equal 20000*$s    variable        d equal 20000*5    
# convert from LAMMPS real units to SI
variable        kB equal 1.3806504e-23    # [J/K] Boltzmann
variable        kCal2J equal 4186.0/6.02214e23
variable        A2m equal 1.0e-10
variable        fs2s equal 1.0e-15
variable        convert equal ${kCal2J}*${kCal2J}/${fs2s}/${A2m}
variable        convert equal 6.9510174124148567155e-21*${kCal2J}/${fs2s}/${A2m}
variable        convert equal 6.9510174124148567155e-21*6.9510174124148567155e-21/${fs2s}/${A2m}
variable        convert equal 6.9510174124148567155e-21*6.9510174124148567155e-21/1.0000000000000000777e-15/${A2m}
variable        convert equal 6.9510174124148567155e-21*6.9510174124148567155e-21/1.0000000000000000777e-15/1.0000000000000000364e-10
variable        b_eq equal 10.0/3.0

# setup problem
dimension       3
boundary        p p p
neighbor        2    bin
pair_style      lj/cut 10.0
bond_style      morse
read_data       lammps.data
  9 = max bonds/atom
  orthogonal box = (0 0 0) to (80 80 80)
  2 by 2 by 2 MPI processor grid
  7168 atoms
  33696 bonds
  10 = max # of 1-2 neighbors
  86 = max # of 1-3 neighbors
  824 = max # of 1-4 neighbors
  164 = max # of special neighbors
pair_coeff      1 1 0.000 3.500
pair_coeff      2 2 0.000 3.500
pair_coeff      1 2 0.105 3.500
bond_coeff      1 10 1.8 ${b_eq}
bond_coeff      1 10 1.8 3.3333333333333334814
bond_coeff      2 5 0.805 7.4536
bond_coeff      3 10 1.8 ${b_eq}
bond_coeff      3 10 1.8 3.3333333333333334814
bond_coeff      4 5 0.805 7.4536
velocity        all create $T ${seed} mom yes rot yes dist gaussian
velocity        all create 300 ${seed} mom yes rot yes dist gaussian
velocity        all create 300 123465 mom yes rot yes dist gaussian
timestep        ${dt}
timestep        1
thermo          100
dump            T1 all cfg 600000 *.cfg id type xs ys zs
dump            T2 all xyz 10000 traj.xyz
#dump_modify    1 element Cu
# −−−−−−−−−−−−− Equilibration and thermalisation −−−−−−−−−−−−−−−−
fix             NVT all nvt temp $T $T 10
fix             NVT all nvt temp 300 $T 10
fix             NVT all nvt temp 300 300 10
run             300000
Memory usage per processor = 11.5453 Mbytes
Step Temp E_pair E_mol TotEng Press 
       0          300   -906.89526 0.00012694983    5502.1446    343.62551 
     100    242.98826   -935.24939    7058.5004    11314.322    2212.3786 
     200     291.8356   -991.54335    9953.3295    15196.406     1185.383 
     300    302.40344    -991.4058    8440.4977    13909.477    545.31729 
     400    299.57171   -972.36437    6498.6275    11926.153    830.59251 
     500    300.58589   -955.87086    5682.4216    11148.107    1190.7028 
     600    297.56455   -953.01737    5591.5946    10995.587    1183.2231 
     700    297.37925   -966.17018    6477.4122    11864.293    1189.5719 
     800    303.98498    -978.9911      7175.52    12690.702    1149.7644 
     900    301.92307   -982.55002     7082.398    12549.971    1010.4736 
    1000    301.38691   -978.79078    6563.3844    12023.262    1055.2114 
    1100    298.81415   -978.08606    6484.1448    11889.765    1332.3048 
    1200    301.28123   -977.51816    6316.1132    11775.006    1165.9678 
    1300    302.18991    -981.6439    6370.9725    11845.152    1047.0615 
    1400    295.89518    -986.6041    6574.6267    11909.369    1065.9827 
    1500    304.50369   -990.08041      6898.87    12414.044    1244.0775 
    1600     297.8025   -990.73793     6691.243    12062.599    1295.9267 
    1700    299.36252   -988.37988    6358.0869    11765.128     1257.173 
    1800    303.56896   -990.04717    6518.2459    12013.484    1373.3657 
    1900    297.14375   -993.91655    6632.6459     11986.75       1264.2 
    2000    306.36111   -994.34858    6687.3367    12237.923    1309.8391 
    2100    305.75107   -994.03097     6427.648     11965.52    1371.7834 
    2200    297.39559   -998.42517    6236.8075    11591.783     1411.611 
    2300    300.71291    -1002.927    6572.8821    11994.225    1475.3564 
    2400    301.73658   -1010.2339    6538.7056    11974.611    1284.1007 
    2500    298.96339   -1018.3056    6621.0895    11989.678     1387.008 
    2600    303.92385   -1027.8626    6523.7018    11988.706    1339.4781 
    2700    299.82713   -1037.9807    6502.4317    11869.798     1317.597 
    2800    299.97595   -1047.4802    6470.2512    11831.297     1416.969 
    2900    300.87673   -1056.6666    6512.1997    11883.303    1494.8117 
    3000    306.42974   -1070.7954    6251.0684    11726.674    1397.8909 
    3100    299.03581   -1083.8862    6347.0887    11651.644    1488.5475 
    3200    302.52441   -1093.6048    6490.2613    11859.626    1518.7739 
    3300    298.74333   -1104.6017    6327.2116    11604.803    1534.4592 
    3400    300.01538    -1105.536     6111.075    11414.907    1576.8856 
    3500    300.45905   -1100.4081    6238.9345    11557.373    1579.6245 
    3600    297.71702   -1087.1184    6472.4128    11745.562    1702.1861 
    3700    301.28397   -1071.5339     6273.629    11638.565    1760.4559 
    3800    300.34264   -1075.4985     6179.869     11520.73    1722.9486 
    3900    298.71304   -1069.2409    6327.8883    11640.193    1801.1757 
    4000    301.94802   -1069.0729    6272.4551    11654.038    1824.0009 
    4100    299.98974   -1085.0097    6347.7913    11671.602    1776.9245 
    4200    306.27523   -1106.8431    6324.9215    11761.179    1726.8739 
    4300    298.33191   -1120.6077    6267.7115    11520.507    1734.8116 
    4400    296.74733   -1118.3686    6289.2958    11510.479    1780.6275 
    4500     301.1991   -1113.1925    6159.2184    11480.682    1665.3309 
    4600    296.23857   -1106.8327    6332.3491    11554.199    1695.2856 
    4700    301.09892   -1098.9678    6522.7241    11856.273    1567.9517 
    4800    302.83098   -1093.3339    6721.5203    12097.706    1625.6047 
    4900    300.27145    -1082.867    6442.9471    11774.919    1590.4131 
    5000    302.31649   -1074.1042    6236.5264     11620.95    1656.3418 
    5100     298.3189   -1066.5344    6257.2485     11563.84    1622.0873 
    5200     298.7583   -1067.4151    6560.6549    11875.753    1565.4999 
    5300    292.99296   -1070.6965    6784.0623    11972.711    1584.9387 
    5400    295.81479   -1068.0666    6552.1067    11803.669     1515.691 
    5500    303.96145   -1069.6783    6246.4046    11670.396    1496.9461 
    5600    301.11417   -1070.5869    6410.7534    11773.009    1691.0043 
    5700    297.89379   -1080.2266    6455.6589    11739.476    1642.1222 
    5800    305.92063   -1082.4315    6611.0069      12064.1    1652.6315 
    5900    300.36812   -1091.8229    6452.8786     11777.96    1649.2948 
    6000    298.56037    -1099.467    6444.2065    11723.024    1699.1058 
    6100    300.33015   -1110.8822    6328.2095     11633.42    1551.6345 
    6200    291.75299   -1115.2033     6331.595    11449.247    1525.7668 
    6300    307.00426   -1123.1355    6390.4965    11826.036    1606.1593 
    6400    298.38821    -1133.724     6354.273    11595.155    1600.6547 
    6500    299.48849   -1140.8832    6314.9356    11572.164    1692.2902 
    6600    300.92399   -1146.8202    6243.4586    11525.418    1741.7717 
    6700    297.31333   -1147.3407    6414.4807    11618.783    1787.6342 
    6800    298.63757   -1148.4882    6402.2717    11633.717    1730.8739 
    6900    301.88052   -1153.5223    6229.7432    11525.435      1718.42 
    7000    295.57803    -1155.897    6196.9847    11355.659    1753.9755 
    7100    304.19069    -1148.465    6247.4615    11597.564     1826.154 
    7200    303.84423   -1159.8327    6248.4361    11579.769    1788.1612 
    7300    298.19968   -1141.5958    6442.6909    11671.674    1879.5544 
    7400    299.70404   -1134.3922    6352.1409    11620.466    1800.8455 
    7500    299.28481   -1143.5532    6212.1602    11462.368     1773.029 
    7600    298.66468   -1149.6887    6275.2893    11506.113    1833.2464 
    7700    298.13003   -1140.1406    6307.3635    11536.314    1799.7252 
    7800    302.49477   -1154.0192    6302.8321     11611.15    1823.8397 
    7900    302.26896   -1146.1306    6371.3707    11682.753    1843.5508 
    8000    303.82146   -1142.5381    6331.3481    11679.489    1777.3974 
    8100    299.01947   -1129.8957    6370.3036      11628.5    1702.9897 
    8200    297.94711   -1130.0085    6369.2428    11604.417     1735.354 
    8300    303.81149    -1118.019    6353.7002    11726.147     1729.301 
    8400    304.91004   -1106.2651    6356.1946    11763.865    1697.2889 
    8500    297.48977   -1103.8353    6450.2254    11701.803    1720.3956 
    8600    294.60305   -1099.5341    6515.1536    11709.362    1714.3673 
    8700    302.06839   -1091.2786    6483.6558    11845.605    1710.1759 
    8800    296.54799   -1092.8314    6480.9712    11723.433     1706.097 
    8900    300.48712   -1089.4532    6475.0158    11805.009    1783.7709 
    9000    301.79172   -1092.7455    6377.4065    11731.978    1685.9174 
    9100    298.16304   -1095.4016    6492.9625    11767.357    1703.3146 
    9200     302.6746     -1097.99    6568.3746    11936.563     1739.834 
    9300    298.91318   -1100.5038    6530.3586    11815.676     1676.966 
    9400    298.09231   -1108.0676    6468.9158    11729.133    1706.7303 
    9500    298.18306   -1115.4174    6464.3035     11719.11    1707.1256 
    9600     301.6793   -1125.3547    6428.7352    11748.296    1651.9382 
    9700    301.93717   -1131.5108    6445.6667     11764.58    1630.9372 
    9800    298.40462   -1139.1927    6425.3073    11661.071    1645.0568 
    9900    295.95694   -1150.2612    6463.8904    11636.295    1715.0534 
   10000    298.09675   -1151.2197    6288.5002     11505.66    1702.3907 
   10100    293.74982   -1154.5841     6265.992    11386.922    1772.7765 
   10200    303.84204   -1157.1716    6397.8948    11731.842    1814.4065 
   10300    297.59681   -1147.5119    6435.2413    11645.429    1845.9409 
   10400    301.30546   -1156.0772     6286.391    11567.243     1856.863 
   10500    296.10297   -1158.4915    6340.4948    11507.789    1864.6591 
   10600    299.93103   -1149.5359    6392.4695      11650.5    1824.1958 
   10700    302.99443   -1155.1488    6435.5943    11753.457    1789.6938 
   10800    298.04589    -1165.612    6390.3947    11592.076    1765.1315 
   10900     305.3184   -1161.4117    6384.6764    11745.924    1785.3922 
   11000    302.44244   -1154.7235    6431.1441    11737.639    1841.5993 
   11100    303.40969   -1162.3263    6244.0123    11563.568    1792.6497 
   11200    298.74983   -1152.8026    6372.2825    11601.812    1920.7621 
   11300    299.39676   -1150.0261    6338.6737      11584.8    1912.1037 
   11400    301.72515   -1145.7089    6305.4237     11605.61    1900.4607 
   11500    295.39365   -1136.7027    6361.8933    11535.823    1827.7026 
   11600    300.03894    -1130.675    6521.0924    11800.289    1869.3543 
   11700    297.37771   -1132.8285    6327.2437    11547.434    1785.8768 
   11800    305.14187   -1122.4001    6389.6414    11786.129    1792.8641 
   11900    297.68606   -1110.7946    6488.5288     11737.34    1739.8018 
   12000    300.22217   -1105.6819     6467.321    11775.425     1750.671 
   12100    301.02939   -1100.6558    6499.9592    11830.335    1749.6415 
   12200     296.7132    -1095.674    6488.1443    11731.293    1745.6995 
   12300    298.33566   -1092.4766    6413.0163    11694.023    1730.3713 
   12400    303.79649   -1092.3531     6501.146    11898.939    1740.6611 
   12500    297.52869   -1091.0938    6474.9415    11740.092    1671.5792 
   12600    299.71792   -1093.8485    6455.4378    11764.603    1740.8206 
   12700    300.53931   -1094.3192    6483.3144    11809.556    1783.7684 
   12800    303.73949   -1099.2135    6406.0972    11795.812    1710.6977 
   12900    297.00491   -1101.2795    6476.7559    11720.531    1809.6076 
   13000    302.02759   -1109.8471    6411.0387    11753.548    1794.4682 
   13100    298.69183    -1116.165     6517.475    11782.403    1744.2894 
   13200    299.43931   -1116.1637    6392.9968    11673.894    1713.5416 
   13300     299.2415    -1122.189    6404.0938     11674.74    1694.0574 
   13400    296.83744   -1119.9727    6412.3347    11633.838    1726.5764 
   13500    301.07603   -1122.3801    6362.5485    11672.196    1804.4049 
   13600    298.85379   -1128.1664    6457.1352    11713.522    1828.1778 
   13700    299.13327   -1116.4349    6484.9831    11759.071    1893.9014 
   13800    297.84649   -1129.3069     6327.986    11561.712    1855.2696 
   13900    298.46496   -1127.0451    6459.7988        11709    1879.4149 
   14000    298.06292    -1130.289    6406.2241    11643.592    1822.9751 
   14100    299.41271   -1119.8075     6397.752    11674.438    1844.3216 
   14200    299.72344   -1123.3433    6517.7415     11797.53    1883.7121 
   14300    301.62254   -1129.8007    6397.6914    11711.594    1793.3954 
   14400     298.5997   -1134.8436    6399.7921    11644.073    1859.0904 
   14500    300.02523   -1139.0658    6336.0897    11606.603    1824.1439 
   14600    304.89401   -1132.3105    6531.5325    11912.815    1842.0534 
   14700    296.88843   -1133.4733    6403.6073      11612.7    1834.9326 
   14800    296.18916   -1125.2929     6414.351    11616.685    1886.6749 
   14900     299.9231   -1124.2691    6400.8103    11683.938    1817.6076 
   15000    296.36105   -1128.7912    6313.5303    11516.038    1735.8252 
   15100    301.65475   -1122.7966     6420.102    11741.696    1832.5021 
   15200    298.22321   -1127.7722    6514.2976    11757.607    1825.5817 
   15300    302.59947   -1129.5871    6404.4169    11739.403    1819.9206 
   15400    298.72772   -1130.8237    6322.3635    11573.399    1775.8931 
   15500    294.02907   -1132.5468    6437.3069     11586.24    1845.2482 
   15600    299.72058   -1140.8485    6369.6857    11631.908    1826.7212 
   15700    299.73758   -1139.8023    6432.9611    11696.592    1805.2231 
   15800    306.23065   -1138.7243    6341.8159     11745.24    1773.9994 
   15900    297.14178   -1139.8569    6461.3388     11669.46    1813.5011 
   16000    301.75406   -1136.0796    6330.5535    11640.986    1783.4143 
   16100    299.98543   -1140.9884      6411.84     11679.58    1847.8118 
   16200    305.05062   -1139.6167    6402.4303    11779.752    1785.6245 
   16300     298.3551   -1145.6551    6492.6845    11720.928    1820.0598 
   16400    302.20861   -1150.8511    6393.7695    11699.142    1750.0085 
   16500    296.40088   -1148.3132    6455.1517    11638.989    1773.4552 
   16600     292.1032   -1146.5096     6463.494    11557.321     1746.592 
   16700     302.1062   -1150.7147    6188.2665    11491.587    1684.3371 
   16800    299.16449   -1143.3885    6412.2949    11660.097    1726.8305 
   16900    300.39716   -1142.0902     6471.393    11746.827    1788.3662 
   17000     299.3796   -1139.7542    6417.9875    11674.019    1881.4133 
   17100    299.36265   -1142.9502    6418.4474    11670.921    1851.5235 
   17200    297.97204   -1142.9213    6425.5673    11648.361    1874.1312 
   17300     300.8537   -1141.3166      6327.04    11613.001    1801.9842 
   17400    303.37222   -1136.9637    6441.4363    11785.555    1883.4898 
   17500    298.85909     -1136.31    6365.5479    11613.904    1758.2432 
   17600    291.89394   -1136.5504     6516.874     11616.19    1806.0405 
   17700    300.98391   -1136.9317     6461.336    11754.464    1800.7153 
   17800    301.01882   -1134.6638    6367.3226    11663.464    1845.5375 
   17900    297.01066    -1132.597    6428.4837    11641.064    1889.3739 
   18000    302.75557   -1136.7502     6390.384    11721.542    1864.4717 
   18100    299.87526   -1136.2309    6377.5774    11647.721     1829.376 
   18200      297.896   -1137.0082    6413.3732    11640.456    1809.6715 
   18300    305.85405   -1137.2854    6403.1249    11799.942      1817.62 
   18400    298.92998   -1146.4157    6388.7492    11628.514    1777.5804 
   18500    299.55694    -1143.142    6357.6052    11614.038     1774.837 
   18600    298.93743   -1140.3903    6414.8408     11660.79    1900.1944 
   18700    298.93312   -1142.4348    6423.0284    11666.841    1871.0106 
   18800    299.95615   -1134.7713    6438.0518    11711.383    1877.8073 
   18900    297.52127   -1140.2834    6406.0762    11621.878    1790.9272 
   19000    301.57994   -1138.8245    6477.9632    11781.931    1800.2766 
   19100    295.85856    -1146.204    6265.6627    11440.023     1771.537 
   19200    299.49059   -1150.4775    6426.4606     11674.14    1848.3294 
   19300    299.12467   -1150.4575    6536.4466    11776.329    1817.0813 
   19400    301.51202   -1144.1375    6359.7822    11656.986    1790.7126 
   19500    302.70154   -1147.2892    6323.7179    11643.183    1841.5047 
   19600    300.29336   -1144.7452    6412.7404    11683.302    1841.7297 
   19700    305.10151   -1141.6631    6322.0191    11698.382    1790.7803 
   19800     293.3726   -1139.1677    6577.0793    11705.367    1828.8619 
   19900    297.04296   -1141.3591    6459.0282    11663.536    1794.2706 
   20000     302.9121   -1138.5616    6446.9065    11779.597    1832.5061 
   20100    304.22329   -1136.8482     6384.137    11746.553    1853.6539 
   20200    298.24913   -1140.3731    6317.7483     11549.01     1857.935 
   20300    304.57502   -1142.1455    6422.1123    11786.745    1869.3626 
   20400    299.45801    -1134.639    6428.9173    11691.739    1858.2693 
   20500    293.63914   -1134.1745    6426.4709    11565.446    1831.4411 
   20600    303.42421   -1133.6048    6384.6949    11733.283    1801.4008 
   20700    302.64506   -1136.3277    6377.8094    11707.029    1810.4274 
   20800    295.68358   -1129.0213    6348.1568    11535.962    1822.2515 
   20900    299.20077   -1132.7547    6321.1208    11580.331    1788.6899 
   21000    302.45428   -1125.3234    6420.4456    11756.594    1850.6028 
   21100    296.06537   -1123.4875     6453.001    11654.496    1911.8093 
   21200     303.3146   -1130.9652    6317.4086    11666.294    1825.5429 
   21300    297.48801   -1130.0148    6386.8751    11612.235    1792.3662 
   21400    299.94968   -1134.9506    6506.5103    11779.524    1859.3208 
   21500     297.9849   -1130.4353    6399.9648     11635.52    1755.3939 
   21600    300.41407   -1128.8574    6421.4076    11710.436    1861.2161 
   21700    301.55451   -1129.9046    6450.6551        11763    1863.3767 
   21800    297.61203   -1130.4079    6463.9912    11691.608     1857.928 
   21900    300.58217    -1129.437    6358.7863    11650.826    1794.8613 
   22000    299.72826   -1128.6959     6479.362      11753.9    1778.8795 
   22100    303.69762   -1128.2501    6531.0082    11890.792    1806.8206 
   22200    302.84736   -1126.6837    6454.2639    11797.449    1766.1618 
   22300    300.48717   -1127.0107    6383.9446    11676.381    1752.8942 
   22400    302.55871   -1128.8142     6422.437    11757.325    1805.6553 
   22500    302.62327   -1131.4038    6470.8494    11804.527    1855.7365 
   22600    299.75954   -1134.4143    6384.7997    11654.288    1889.5332 
   22700     302.3199    -1137.207      6445.47    11766.864    1908.2838 
   22800    301.49919   -1142.7838    6399.7939    11698.078    1783.5846 
   22900     295.8834   -1143.0658    6316.2228    11494.252    1776.1698 
   23000    300.58521   -1149.5274    6458.2993    11730.314    1824.9083 
   23100    299.81246   -1157.4279    6352.6338    11600.239    1891.5847 
   23200    298.01988   -1149.9081    6382.4814    11599.311    1882.1624 
   23300    305.69378   -1143.7461    6447.2584    11834.191    1938.6662 
   23400    301.01619   -1146.3651    6316.7087    11601.093    1907.4125 
   23500    296.08347   -1142.1587    6404.5489    11587.759    1955.3478 
   23600    299.83198   -1150.5878    6381.2607    11636.123    1891.3042 
   23700     303.2166   -1149.5771    6344.2542    11672.435    1784.4207 
   23800     297.2481    -1162.719     6405.379    11592.909     1868.469 
   23900    301.24991   -1160.3238    6461.9205    11737.339    1884.0023 
   24000    302.03632   -1161.1165     6477.662    11769.088    1860.3915 
   24100    301.57344   -1160.1645    6405.6249    11688.114    1893.7546 
   24200    299.72101   -1155.5947    6320.5194    11568.004    1877.6891 
   24300    296.87346    -1148.848    6454.3891    11647.787    1870.7549 
   24400    294.39069   -1149.2467    6365.2348    11505.194    1849.4218 
   24500    304.09077   -1144.7702    6437.3521    11789.015    1898.3991 
   24600    297.82874   -1146.9215    6449.7573     11665.49    1831.5447 
   24700    301.25749   -1148.0355    6259.5059    11547.374    1792.5073 
   24800    299.78248   -1145.0127    6431.5332    11690.913    1895.6505 
   24900    302.86999   -1142.2438    6512.8772    11840.986    1853.4234 
   25000    298.31234   -1142.9981    6491.6342    11721.622     1874.313 
   25100    303.31665   -1143.3344    6413.9658    11750.526    1865.5081 
   25200    302.78087   -1136.0395    6505.4463    11837.855    1810.4713 
   25300    298.04172   -1141.1469    6426.9689    11653.026    1780.4801 
   25400    305.40169   -1142.4081    6388.6026    11770.633    1909.3185 
   25500    299.50157   -1142.5396    6454.1109    11709.963    1956.0419 
   25600      304.824   -1143.3169     6456.407    11825.187    1914.6003 
   25700    301.25321   -1153.2991    6432.6406    11715.154    1890.1763 
   25800    300.53266   -1157.0156    6378.2753    11641.679    1839.8845 
   25900    299.81883   -1160.5118    6347.5512    11592.209    1797.2697 
   26000    301.55797    -1156.849    6411.6553     11697.13    1865.0776 
   26100    297.24373   -1158.3949    6447.7213    11639.483    1909.5443 
   26200    299.25408   -1163.1185    6311.6067    11541.593    1804.5484 
   26300    300.14852   -1155.4969    6370.3446     11627.06    1882.7965 
   26400     296.7571   -1157.3602    6346.9509    11529.351    1881.6544 
   26500    304.53072   -1156.3944    6382.9336    11732.371    1893.2809 
   26600    296.54615   -1158.9147    6373.5094    11549.848    1850.4783 
   26700    299.65635   -1162.6055    6381.2102    11620.303    1833.5251 
   26800    303.46852   -1163.8166    6493.0885    11812.411    1869.8655 
   26900    298.64879   -1170.4407    6394.8001    11604.533    1835.6612 
   27000    297.17122   -1163.2161    6310.8204    11496.211    1867.2376 
   27100    303.15253   -1157.0613    6339.7946    11659.122    1833.4418 
   27200    298.94922   -1154.2471    6572.5342    11804.878    1893.1156 
   27300    298.10302   -1153.1158    6315.5633    11530.961    1825.6441 
   27400    301.35425   -1151.6579    6409.0597    11695.373    1875.1372 
   27500    306.53471   -1153.2694     6330.201    11725.575     1829.362 
   27600    299.44463   -1152.6948    6549.4081    11793.888     1944.578 
   27700    293.53837   -1146.5082    6545.9372    11670.426    1916.6085 
   27800    298.90935   -1147.2302    6418.3005     11656.81    1828.5526 
   27900    295.52531   -1141.2362    6495.4095    11667.618    1900.7603 
   28000    303.05877   -1141.0025    6387.8996    11721.283     1899.883 
   28100    293.35479   -1138.0276    6395.1364    11524.184    1955.7001 
   28200    299.60012   -1137.4996    6406.7556    11669.753     1928.745 
   28300    300.43522   -1136.6297    6511.6462    11793.354    1852.0688 
   28400    300.75212   -1139.1061    6520.5387     11806.54    1897.4901 
   28500    303.60354   -1145.5269    6360.8288    11701.326    1841.3345 
   28600    296.65289   -1146.5131    6375.2078    11566.228    1832.1172 
   28700    301.92274   -1150.1927    6451.7746    11751.698    1864.8344 
   28800    295.07577   -1155.8491    6403.4565    11551.448    1835.8675 
   28900    303.87537   -1155.4104    6413.6805    11750.101    1881.2106 
   29000    300.71893   -1158.9613    6425.0163    11690.454    1883.2549 
   29100    299.16407   -1158.7817    6275.5231    11507.923    1889.8638 
   29200      300.557   -1152.7469    6423.5869    11691.779    2013.7691 
   29300    298.81684     -1152.93     6409.704    11640.537    1950.6367 
   29400    304.32445   -1159.9689    6282.7744     11624.23    1910.0384 
   29500    300.27689   -1163.1812    6413.0358     11664.81    1929.0081 
   29600    297.80198   -1168.9958    6451.6077    11644.694    1897.9873 
   29700    302.25909   -1172.4923    6313.9791    11598.788     1876.994 
   29800    297.29092    -1181.848    6351.7171    11521.033     1840.533 
   29900    299.56134    -1170.923    6400.8971    11629.643    1827.1405 
   30000    301.23032   -1169.3364    6451.9688    11717.956    1861.6694 
   30100    300.23905   -1160.5377    6373.6802    11627.289    1888.9559 
   30200    304.47383   -1162.1302    6395.6142      11738.1    1928.2909 
   30300    297.55766   -1166.8614    6313.2883     11503.29    1865.5924 
   30400      302.979   -1163.3404    6368.9322    11678.273    1803.2696 
   30500    299.17433    -1165.486    6544.3622    11770.277    1909.1874 
   30600    302.73109   -1171.3193    6405.4806    11701.546    1872.8212 
   30700    296.46978   -1165.5911    6424.3569    11592.388    1854.9319 
   30800    303.94046   -1161.1361    6413.4457    11745.531    1889.2097 
   30900    299.75102   -1162.2288    6365.5626    11607.054    1890.3624 
   31000     296.7562   -1158.2155    6384.1859    11565.711    1851.4338 
   31100    301.16871   -1150.6709    6493.8027    11777.139    1965.1581 
   31200    294.24461   -1157.6997    6390.8579    11519.243    1914.0205 
   31300    301.42891   -1149.5326    6406.5827    11696.616    1884.2874 
   31400    304.13509   -1149.7729    6451.7446    11799.351     1843.213 
   31500    296.52622   -1151.8448    6459.5488    11642.532    1901.9081 
   31600    300.36423   -1147.9707    6271.4974    11540.348      1826.11 
   31700    300.00441   -1149.9378     6339.022    11598.218     1806.893 
   31800     297.6584   -1146.7741    6508.0019    11720.243    1926.8424 
   31900     305.9496   -1145.9821    6524.4594    11914.621    1917.2476 
   32000    299.43188   -1140.2083    6363.4124    11620.107    1824.1425 
   32100    300.13486   -1143.7318    6344.4109      11612.6     1911.976 
   32200    299.04963   -1144.5103    6388.9739      11633.2    1913.1688 
   32300    301.11077   -1139.0183    6487.5749    11781.326    1879.5029 
   32400     297.4975   -1138.1988    6407.0469    11624.426    1820.7219 
   32500     299.4783   -1143.7895    6387.6075    11641.712    1865.6362 
   32600    300.43281   -1142.3592    6440.9322    11716.859     1834.342 
   32700      302.446   -1149.2756    6455.1612     11767.18    1768.1678 
   32800    299.05186   -1148.2459    6496.3825    11736.921    1818.0917 
   32900    295.12441   -1144.4742     6462.626    11623.032      1817.85 
   33000    299.17924   -1146.2316    6336.8085    11582.082     1769.421 
   33100     300.9223   -1142.7027    6425.2808    11711.321    1873.1642 
   33200    298.54616   -1142.1877    6535.7088    11771.502     1929.985 
   33300    305.60533   -1143.4414     6319.087    11704.435    1846.9662 
   33400     295.3923   -1146.5298    6319.0743    11483.148    1859.2557 
   33500    301.38228   -1146.9222    6520.4988    11812.146    1864.1031 
   33600    303.29764   -1154.5883     6427.821    11752.721    1801.7141 
   33700    295.51276   -1163.4155    6383.7894     11533.55    1852.3331 
   33800    292.71504   -1162.8023    6377.7961    11468.402    1779.3301 
   33900    299.82337   -1166.1124    6377.6513    11616.805    1841.9929 
   34000     299.3054   -1157.4795    6480.3692     11717.09    1897.1529 
   34100    304.85264   -1160.1982    6484.9678    11837.479    1979.3883 
   34200    300.35215   -1159.3347    6280.2746    11537.503    1930.4505 
   34300    300.35173    -1166.422    6290.6823    11540.814    1956.4529 
   34400    298.68045   -1165.3029    6460.2597    11675.806    1924.6394 
   34500    301.19234   -1160.3262    6465.0672    11739.253    1890.2272 
   34600    301.88371   -1177.0659    6244.7457    11516.962    1818.3042 
   34700    298.42575   -1174.0458    6327.7936    11529.156    1887.6947 
   34800    297.74986   -1170.0738     6430.746    11621.641    1880.8224 
   34900     299.1299   -1172.7747    6274.0551    11491.732     1871.157 
   35000    302.79197   -1164.1262    6420.5415    11725.101    1933.1009 
   35100    302.34218   -1163.7967    6438.9261    11734.206    1891.8283 
   35200     298.3778   -1162.9193    6334.2844    11545.749    1850.7296 
   35300    300.22553   -1161.7427    6337.4205    11589.536    1861.7776 
   35400    304.48588   -1163.1158    6391.5593    11733.317    1867.4469 
   35500      298.009   -1162.9396    6498.8872    11702.453    1946.7264 
   35600    309.90145   -1161.2133    6375.6802    11835.036    1917.9821 
   35700    298.42522   -1158.6557    6467.9603    11684.701    1862.2986 
   35800    297.86988   -1151.3255    6523.8436    11736.051    1861.9195 
   35900    303.29356   -1148.8501    6378.7741    11709.325    1878.0092 
   36000    297.24255   -1146.8448     6452.216    11655.502    1826.9927 
   36100    298.93229   -1144.8349    6466.8792    11708.274    1858.6576 
   36200    306.65392   -1149.4882    6434.7112    11836.413    1893.2572 
   36300    300.24259   -1140.9948    6500.6158    11773.843    1799.4085 
   36400    302.10314   -1140.4568     6466.811    11780.324    1782.2079 
   36500    295.70854   -1140.8893    6464.2651    11640.735    1822.9774 
   36600    299.73222   -1140.8669    6473.4187    11735.871    1808.8661 
   36700    303.45493   -1142.7473    6487.1116    11827.213    1838.3014 
   36800     295.4134   -1143.2968      6437.99    11605.747    1901.8655 
   36900     300.3451   -1142.1312    6438.6839    11712.965    1890.1947 
   37000    302.02726   -1150.5566    6484.2977     11786.09    1929.2131 
   37100     300.1744   -1150.6779    6477.0886    11739.176    1983.7485 
   37200    299.29875   -1149.2809    6375.9937    11620.771    1971.4174 
   37300      300.525   -1151.5492    6377.9275    11646.634    1961.0391 
   37400    306.14036   -1150.2945    6390.4778    11780.402    1990.5093 
   37500    299.94898   -1153.9705    6436.8493    11690.829    1927.9411 
   37600    297.46214   -1157.8823    6421.0465    11617.986    1912.3875 
   37700    306.76098   -1161.3126    6403.6696    11795.835    1885.1214 
   37800    297.57775   -1160.3541    6454.1972    11651.135    1876.5885 
   37900    302.24826   -1162.1565    6351.7487    11646.663    1877.5701 
   38000    301.33953   -1161.2992    6346.5757    11622.933    1839.0269 
   38100    299.67581   -1165.8977    6436.0665    11672.283     1863.699 
   38200    303.31234   -1161.5097    6410.1118    11728.405    1840.9207 
   38300    296.77207   -1166.1099    6412.0309    11586.001    1831.8623 
   38400    302.65582   -1169.7821    6369.8133    11665.808    1898.5698 
   38500    297.37583   -1169.8827    6376.0467    11559.142    1893.5356 
   38600    303.71852   -1171.7806    6436.7153    11753.415    1922.4051 
   38700    300.55498   -1170.5341    6510.3259    11760.688    1973.3468 
   38800    297.27844     -1164.79    6412.2675    11598.375    1940.0856 
   38900    303.09916   -1168.5274    6330.1343    11636.855    1916.1481 
   39000    296.80919   -1168.4912    6353.1955    11525.577    1852.1896 
   39100    300.29613   -1164.0521    6446.1599    11697.474    1832.9094 
   39200    300.15642   -1166.4932     6428.963    11674.851    1847.7339 
   39300    296.46818   -1167.8177    6427.2389    11593.009     1887.402 
   39400    299.26606   -1165.9014    6384.2613     11611.72    1899.6529 
   39500    301.76699   -1161.2918     6405.999    11691.496    1932.2269 
   39600    300.45959   -1163.3797    6428.2388    11683.717    2002.9667 
   39700    303.48428   -1161.8683    6463.3167    11784.924    2019.4254 
   39800    303.27068   -1150.5006    6534.1708    11862.583    1971.7456 
   39900    298.89157   -1161.6937    6400.0737     11623.74    1946.9933 
   40000     296.8508   -1162.9593     6246.465    11425.268    1880.2283 
   40100    304.37085   -1162.1809     6461.423    11801.658    1915.3859 
   40200     296.6989   -1158.0828    6382.0763     11562.51     1815.011 
   40300    304.13051   -1155.2302    6554.0385     11896.09      1946.04 
   40400    300.09153   -1151.6496    6418.9167    11678.262    1913.9032 
   40500    305.12546   -1153.1015    6318.1477    11683.583    1911.1471 
   40600    298.96439   -1155.5789    6368.9108    11600.247    1895.0034 
   40700    296.81592   -1146.9027    6534.2364     11728.35    1946.7589 
   40800    299.40826   -1149.5517    6380.6741     11627.52    1879.2999 
   40900    306.20637   -1151.0172     6350.802    11741.414    1899.2296 
   41000    299.54999   -1153.1714    6487.0355     11733.29    1986.1803 
   41100    301.20673   -1152.0843    6421.7391    11704.474    1957.8096 
   41200    304.31428    -1157.936    6364.2409    11707.513    1934.6572 
   41300    296.34525   -1154.4626     6505.252    11681.751    1936.5518 
   41400     299.7702   -1158.9733    6413.0052    11658.162    1847.7144 
   41500     300.3173   -1154.7948    6457.1449    11718.168    1957.5722 
   41600    302.92152   -1155.9552    6375.9846    11691.483    1934.7273 
   41700    296.68235    -1157.679    6322.5282    11503.013    1877.5126 
   41800     302.1377   -1154.5063    6407.8836    11708.086    1883.4234 
   41900    299.11877   -1157.3817    6458.4231    11691.255     1905.416 
   42000    300.05967   -1153.6243    6392.9015    11649.592    1921.8733 
   42100      299.716   -1152.4618    6403.6317    11654.142    1960.8143 
   42200    300.99922   -1158.9431     6337.933    11609.376    1916.5387 
   42300    297.72532   -1159.6995    6342.3856    11543.131    1907.0038 
   42400    297.28427   -1157.2059    6461.0563    11654.873    1901.0913 
   42500     302.8143   -1161.1882    6429.6557     11737.63    1884.7281 
   42600    296.78488   -1164.6162    6338.4338    11514.171    1857.2905 
   42700    293.79395   -1162.7951    6333.2421    11446.904    1866.5853 
   42800    306.68502   -1155.0738    6455.5526    11852.334    1974.0014 
   42900    297.75977   -1152.6871    6371.7056    11580.199    1911.9595 
   43000     304.5342   -1153.1483    6361.8642    11714.622    1919.2041 
   43100    295.40244   -1156.3549    6395.7596    11550.224    1942.3695 
   43200    300.90939   -1154.7503    6406.3172    11680.034    1987.2057 
   43300    299.66442   -1152.0802    6304.1868    11553.977    1906.6627 
   43400    299.72652   -1154.6184    6452.2292    11700.808    1888.0258 
   43500    299.05714   -1154.1519    6489.9471    11724.692    1902.8449 
   43600    300.61995   -1152.3835    6439.7263    11709.627    1974.6398 
   43700    300.04444   -1150.5126    6281.8243    11541.301    1819.8753 
   43800    299.30924   -1150.8196     6456.472    11699.935    1872.0866 
   43900    295.29014   -1149.4889    6488.5729    11647.505    1860.9235 
   44000    304.22893   -1148.9006     6404.256     11754.74     1865.777 
   44100    300.50203   -1146.3862    6377.7698    11651.148    1863.0001 
   44200    305.95578   -1150.9902    6450.4368    11835.722    1940.3158 
   44300     297.6492   -1146.9066    6495.8316    11707.744    1887.0907 
   44400    306.03109   -1144.7376    6448.4972    11841.644    1855.3814 
   44500    298.56707   -1151.7044    6483.2715    11709.995    1874.0807 
   44600    302.68531   -1155.1648    6351.1406    11662.383    1852.2649 
   44700    300.80559   -1148.9563    6408.8581    11686.152    1863.8967 
   44800    299.42388   -1153.7584    6403.2972     11646.27    1842.5944 
   44900    308.43089   -1151.7491    6543.2101    11980.614    1900.3173 
   45000    297.26949   -1156.1366    6421.3924    11615.962    1821.2046 
   45100    302.20291   -1164.3457    6356.4223    11648.178    1822.6514 
   45200    298.42847   -1159.4195    6443.3289    11659.376    1869.6973 
   45300    299.91075   -1164.9411    6446.1488    11688.341    1908.3074 
   45400    305.40714   -1162.0259    6346.0374    11708.566    1896.5033 
   45500    306.46045   -1162.1341    6432.6838    11817.607    1931.2604 
   45600    298.63479   -1159.3494    6497.3417    11717.866    1928.2267 
   45700    299.59295   -1165.7748    6404.4114     11638.98    1853.2376 
   45800    299.56868   -1169.5824    6380.5415    11610.784    1800.6203 
   45900     298.7161   -1166.3693    6442.3696    11657.612    1949.8754 
   46000    300.21252   -1170.0813    6357.3624    11600.861    1921.5193 
   46100    303.86841   -1175.7882    6422.5598    11738.454      1922.65 
   46200    297.54646   -1167.1387    6406.0618    11595.547     1880.697 
   46300    303.03503   -1165.5092    6473.8684    11782.238    1888.8647 
   46400     294.0317   -1162.5872     6443.481     11562.43    1874.7941 
   46500    298.25198   -1171.7155    6435.2384    11635.219    1978.5034 
   46600    305.02487   -1164.6445    6443.6032    11795.347    1946.3926 
   46700    297.93054   -1169.9966    6375.7324    11570.565    1869.9256 
   46800    298.73005   -1169.1075    6361.9513    11574.753    1889.4266 
   46900    292.40542   -1171.4694    6440.6665     11515.99    1943.9079 
   47000    299.82806   -1166.0642    6506.9636    11746.266     1955.235 
   47100    306.06368   -1161.6776    6338.9034    11715.807    1867.0677 
   47200    299.84626   -1158.9238    6369.9539    11616.785    1960.4226 
   47300    296.77788   -1156.3459     6535.256    11719.114    1992.7008 
   47400    300.52294   -1159.5741    6429.8544    11690.492    1906.0114 
   47500     305.1739   -1159.4744    6350.1363    11710.234    1941.3725 
   47600    301.54545   -1155.1143    6406.8705    11693.812     1937.652 
   47700    304.29009   -1160.8334    6431.5497    11771.407    1817.5805 
   47800    298.24058   -1162.0535    6569.3489    11778.748    1927.5918 
   47900    302.74386   -1152.5019    6390.2247    11705.381    1938.2168 
   48000    297.76649   -1153.5976    6422.7567    11630.483    1895.2728 
   48100    294.52989   -1149.9664    6435.6714    11577.884    1872.3486 
   48200    300.65361    -1150.548    6498.8426    11771.298    1917.7072 
   48300    299.16801   -1150.1785    6485.3751    11726.462    1933.1143 
   48400    298.93241   -1152.1454    6414.2887    11648.375    1948.7395 
   48500    307.84287   -1156.6092    6422.3542    11842.336    1983.7896 
   48600    298.52075   -1150.1831    6480.2932    11707.548    1923.4707 
   48700    302.54182   -1154.0795    6464.3776     11773.64    1912.5212 
   48800    297.98264   -1154.3766    6419.9588    11631.524     1921.619 
   48900    303.96741   -1150.4957    6434.8695    11778.171     1949.921 
   49000    297.11498   -1152.2999    6466.0225    11661.128    1903.0604 
   49100     304.4908   -1154.6723    6424.4787    11774.785    1921.0488 
   49200    297.64418   -1151.7592    6363.9294    11570.881    1855.4121 
   49300    300.87678   -1153.0843    6525.9733     11800.66    1961.4648 
   49400    299.53631   -1164.9304    6398.7254    11632.929    1900.1169 
   49500     301.2083   -1165.8133    6332.1069    11601.147    1850.7484 
   49600    297.49971   -1169.7635    6434.1533    11620.015    1893.2493 
   49700    302.58121   -1169.6167    6460.0156    11754.582    1933.8365 
   49800    301.94772   -1160.4521    6465.5276    11755.725    1935.7593 
   49900    298.93833   -1157.9181    6439.5327    11667.973    1970.7651 
   50000    301.22189   -1166.2377    6280.7115    11549.617    1945.4154 
   50100    302.10322   -1168.8906     6330.778    11615.859    1907.8487 
   50200    300.59169   -1163.1448    6550.9763    11809.512    1894.2445 
   50300    299.26234   -1167.2586    6519.4798    11745.502    1849.0582 
   50400    304.03756   -1171.1619     6470.306     11794.44    1878.9574 
   50500    303.02757   -1172.4744    6269.4027    11570.647    1830.2985 
   50600    294.96247   -1168.5304    6466.6361    11599.526     1957.562 
   50700    300.78831   -1163.4834    6470.5422    11732.939    1899.8503 
   50800    302.00422   -1153.1395    6499.8091    11798.526    1869.6105 
   50900    303.35046   -1161.3704    6429.9563    11749.203    1909.6803 
   51000    296.06446   -1157.4736    6388.6743    11556.164     1926.576 
   51100    301.88768    -1159.859    6345.2462    11634.754    1919.0484 
   51200    295.75572   -1160.0599    6410.6682    11568.975    1892.5709 
   51300    303.57069   -1161.4924    6419.9124    11743.742    1960.4777 
   51400    297.45285   -1160.9751    6423.3746    11617.023    1955.9028 
   51500    303.33819   -1152.1544    6504.0411    11832.242    1940.5302 
   51600    298.32722   -1147.8284    6493.8067    11719.282    1885.0179 
   51700     299.8022   -1153.7888    6352.9178    11603.943    1880.7115 
   51800    297.65701   -1140.3668    6469.8017     11688.42       1981.5 
   51900    297.10437    -1148.864    6406.3381    11604.653    1898.0565 
   52000    303.35896   -1150.5347    6464.0721    11794.336    1903.7774 
   52100    299.12254   -1150.3963     6489.766    11729.664    1843.6026 
   52200    300.70864   -1150.3593    6333.6979    11607.517     1829.603 
   52300    300.36775   -1153.8963    6448.4898     11711.49     1866.734 
   52400    301.41131   -1153.7663    6567.4726    11852.896    1920.9387 
   52500    296.32301   -1152.0862    6372.6549    11551.055    1897.0548 
   52600     297.6995   -1157.1454    6394.6431    11597.391    1922.0663 
   52700    299.35057   -1155.2947    6542.2275    11782.098    1956.0597 
   52800    300.47457   -1156.7282     6412.302    11674.752    1874.0021 
   52900    298.32315   -1157.6832    6402.4388    11617.972    1823.3041 
   53000    301.06372   -1161.8245    6500.4475    11770.387    1871.5737 
   53100    299.60487     -1164.16     6342.475    11578.913    1880.6343 
   53200    300.06499   -1167.5052    6443.9772      11686.9    1916.5754 
   53300    298.86044   -1164.3914    6428.4781    11648.781    1852.9168 
   53400    301.50286   -1170.5355    6416.5508    11687.161    1911.5838 
   53500    299.63833   -1167.1371    6478.4624    11712.638    1954.3214 
   53600    302.69437   -1162.4302    6353.7261    11657.897     1872.903 
   53700    297.74215   -1164.2013    6364.3213    11560.924    1928.9516 
   53800    298.50957   -1161.3739     6424.121    11639.946    1970.8023 
   53900    303.17307   -1162.3631    6425.5199    11739.984    1893.7098 
   54000    299.78092   -1175.2937    6349.6014    11578.667    1873.3351 
   54100    302.51145   -1172.6218    6468.2333    11758.305    1978.7021 
   54200    299.88943   -1176.3336       6395.1    11625.444    1872.3349 
   54300    299.01659   -1177.2031    6396.5183    11607.346    1877.8944 
   54400    303.85709   -1166.0954    6313.3996    11638.745    1906.0188 
   54500    299.49608   -1159.9549     6355.436    11593.755    1901.4852 
   54600    299.39986   -1151.5362    6477.7228    11722.405     1946.813 
   54700    299.19781   -1154.0616    6341.2295     11579.07    1943.4638 
   54800    298.67939   -1156.5914    6315.5219    11539.757    1921.2487 
   54900    294.12262   -1152.9062    6422.4341    11553.006    1894.5174 
   55000    302.72172   -1162.0912    6434.8745    11739.968    1899.5381 
   55100     300.4531   -1159.3458    6496.9236    11756.297    1908.0297 
   55200    299.68438   -1160.4925    6431.1228    11672.927    1851.5774 
   55300    305.44164   -1159.6807    6397.8484     11763.46    1885.9765 
   55400    297.01408   -1157.2452    6439.6313    11627.636    1864.2136 
   55500    300.60462   -1153.9987    6402.7434    11670.701    1830.4427 
   55600    303.51049    -1147.081    6538.7785    11875.733    1944.1797 
   55700    300.91207    -1149.972    6423.8207    11702.373    1922.6704 
   55800    299.12003   -1151.6996    6439.1867    11677.728    1908.0913 
   55900    295.30816   -1148.8571    6448.7225    11608.671    1887.5281 
   56000    297.19217   -1158.9299     6521.526    11711.651    1921.1943 
   56100    301.45812   -1159.8166    6420.5587    11700.932    1832.8704 
   56200    299.33237    -1166.536    6490.1433    11718.384    1858.2738 
   56300    299.63088   -1164.0652    6323.9137    11561.003    1831.7845 
   56400    304.55663   -1158.2272    6416.9289    11765.087    1861.0633 
   56500    292.52642   -1155.8379    6543.9139    11637.454    1885.5311 
   56600    299.81921   -1152.9159    6435.9079    11688.169     1952.173 
   56700    300.34802   -1156.2357     6415.111     11675.35    1927.1405 
   56800    296.64888   -1159.0422    6264.7496    11443.156    1858.2239 
   56900    302.28164   -1164.4436    6455.4845    11748.824    1936.9971 
   57000    295.53911   -1164.8168    6441.3095    11590.232    1850.6841 
   57100    303.33702   -1164.9415    6461.3947    11776.783    1825.1466 
   57200    306.31767   -1169.8445    6375.9646    11750.127    1830.1892 
   57300    300.19816   -1164.6246    6402.5458    11651.194    1856.0777 
   57400    303.91527   -1163.4484    6408.7028    11737.938    1814.1903 
   57500     297.1958   -1165.5942    6304.8642    11488.402     1845.841 
   57600    302.26199   -1157.5302    6398.7327    11698.566    1876.8657 
   57700    300.30087   -1161.8775    6420.2975    11673.887    1869.3447 
   57800    297.92853   -1163.3895    6342.9939     11544.39    1878.9289 
   57900    295.32618   -1163.4509    6484.4066    11630.146    1955.7303 
   58000    302.01333   -1163.5231    6422.5821     11711.11    1866.8794 
   58100    300.20587   -1168.4004     6399.691    11644.728    1858.1182 
   58200    293.34222   -1164.0861    6492.3655    11595.086    1866.1768 
   58300    303.69876   -1164.3669    6386.2147    11709.906     1856.103 
   58400     294.6401   -1159.2471    6357.7962    11493.083    1852.5908 
   58500    302.64471     -1157.44    6393.8853    11701.985    1899.3422 
   58600    297.96923   -1160.4722    6502.8935    11708.077    1899.1006 
   58700     300.3038   -1156.3767     6428.062    11687.215    1876.4097 
   58800    302.40668   -1155.8431    6299.7434    11604.355    1879.8694 
   58900    292.81622   -1158.4073    6390.4368    11487.599      1865.19 
   59000      298.756     -1161.37    6529.4928    11750.586    1906.0656 
   59100    298.96948   -1161.8821    6419.0982     11644.24    1804.6598 
   59200    302.60707   -1159.9902    6455.7536    11760.499    1833.2841 
   59300    300.03917   -1163.8454    6401.9519    11647.983    1792.5168 
   59400    298.95279   -1160.1174    6556.2578    11782.808    1936.6552 
   59500    303.80629   -1155.9573    6410.4585    11744.857    1873.0022 
   59600     300.1263    -1155.966    6455.9722    11711.744    1890.0912 
   59700    299.80374    -1152.163    6399.6795    11652.363    1881.9257 
   59800    306.31515   -1153.6802    6388.4401    11778.713    1836.1899 
   59900    300.78804   -1158.4821    6492.1744    11759.567    1896.3007 
   60000    299.49872   -1160.6559    6369.9842    11607.659    1880.2062 
   60100    298.97268   -1152.3863    6399.7358    11634.442    1872.0529 
   60200    300.19468   -1159.4307    6413.3461    11667.114    1861.9989 
   60300    299.92496    -1156.177    6452.5676    11703.827    1864.1551 
   60400     299.8943   -1157.0771    6429.0113    11678.716    1885.5004 
   60500    296.62609   -1157.7613    6437.6343    11616.834    1891.4068 
   60600    297.66193   -1156.5962     6413.338    11615.832    1889.0032 
   60700    298.87064   -1158.1099    6333.1485    11559.951    1854.3097 
   60800    296.14079   -1153.1472    6484.3236     11657.77    1884.9464 
   60900    303.88956    -1154.707    6409.4083    11746.836    1862.8663 
   61000    297.37564   -1155.8343    6357.5198     11554.66    1885.0619 
   61100    301.90071   -1159.8727    6447.0931    11736.866    1943.3757 
   61200    296.77399   -1163.4432    6295.7441    11472.422    1875.9516 
   61300    300.12557   -1163.7108    6436.7264    11684.738    1878.4628 
   61400      300.983   -1161.0741    6535.6241     11804.59    1846.5008 
   61500    296.68011   -1161.3366    6401.7379    11578.517    1810.5644 
   61600    301.08451    -1156.605    6411.5482    11687.152    1915.0198 
   61700     302.0879   -1157.6631    6472.8515    11768.833    1958.7782 
   61800    299.13606   -1154.7428    6308.1395     11543.98    1792.0433 
   61900    297.88644   -1157.6296    6453.3158    11659.573    1868.9535 
   62000    295.78265    -1159.147    6509.3223    11669.118    1922.2599 
   62100     301.6495   -1162.5597    6489.1218    11770.841    1907.5284 
   62200    294.43132   -1164.9338    6383.6137    11508.753    1910.7684 
   62300    301.66947   -1167.9592    6384.6214    11661.368    1950.6551 
   62400    299.88705   -1169.5703    6387.0185    11624.075    1847.7724 
   62500    298.78557   -1164.8162    6490.7726    11709.052    1896.8121 
   62600    293.61511   -1166.6264     6508.889    11614.899    1985.8993 
   62700    302.41177   -1162.8356    6274.8862    11572.614    1925.6186 
   62800     297.6842   -1164.8208    6306.8191    11501.564    1878.0916 
   62900    299.68437   -1158.4894    6399.4067    11643.214    1944.7522 
   63000     300.2434   -1159.2157    6461.8838    11716.908    1991.2892 
   63100    298.44283   -1160.0375    6338.3386    11554.074    1931.6542 
   63200    306.08084   -1167.7514    6419.3538     11790.55    1982.9715 
   63300     300.8601   -1175.5505    6482.5835    11734.447    1951.4994 
   63400    296.59934   -1162.2495    6482.5566    11656.697    1950.1842 
   63500    304.20385    -1173.114    6319.7115    11645.446    1914.1523 
   63600    292.99793   -1167.8158    6408.4689    11500.104    1934.1355 
   63700    300.44303   -1163.9416    6436.4798    11691.043    1895.8909 
   63800    298.74372   -1160.5101    6443.3446    11665.036    1915.7054 
   63900    303.79495   -1164.7493    6362.6865     11688.05    1932.8824 
   64000    298.61032   -1161.1778     6474.197     11692.37    1949.6314 
   64100    302.12587   -1164.2346    6441.7768    11731.998    1901.1369 
   64200    294.37152   -1159.9947    6400.0162    11528.817    1913.9773 
   64300    300.38108   -1160.9429    6462.5233    11718.761    1984.5873 
   64400    300.56469   -1162.8562    6426.8402    11685.087    1908.5454 
   64500    297.66739   -1157.8263    6409.4678    11610.849    1886.1466 
   64600    300.46864   -1158.4352    6471.8575    11732.474    1922.6005 
   64700    300.08037   -1163.7153    6450.7251    11697.766    1967.2369 
   64800    300.10742   -1160.2899    6323.7036    11574.748    1894.0177 
   64900    300.64245   -1158.2344    6444.3065    11708.837    1925.9303 
   65000    299.59849   -1150.6485    6515.5512    11765.365    1979.3102 
   65100    294.38463     -1155.11     6385.205    11519.171    1885.5486 
   65200     298.5224   -1154.6147    6399.0986    11621.957    1879.3386 
   65300    304.20126   -1158.9503    6454.7862    11794.629    1996.1573 
   65400    305.64707   -1165.0594    6465.7509    11830.372    1942.4762 
   65500    297.03579   -1166.8195    6429.7488    11608.643    1899.3995 
   65600    297.78337   -1163.9967    6337.5392    11535.227    1927.7267 
   65700    300.80252    -1169.956    6383.3398    11639.568    1924.0141 
   65800    298.90845   -1168.7309    6431.9678    11648.957    1901.2958 
   65900    297.27505   -1161.4358    6375.2044    11564.594    1898.2497 
   66000    299.28024   -1156.2326    6452.3749    11689.805    1992.5374 
   66100    300.36837   -1161.2654     6428.024    11683.668    1906.7749 
   66200    300.86827     -1166.61    6456.4418    11717.421    1941.9081 
   66300    297.58146   -1167.3512    6291.7766    11481.797    1939.0942 
   66400    300.48399     -1168.43    6327.2144    11578.164    1877.3903 
   66500    294.87761   -1175.0435    6574.3813    11698.946     1888.457 
   66600    300.05084    -1168.341    6406.6072    11648.392     1908.966 
   66700    297.03917    -1170.861    6381.3673    11556.292    1886.9238 
   66800    294.61988   -1167.5017    6396.8441    11523.444     1876.397 
   66900    301.68795   -1166.2578    6364.7365    11643.579    1964.2424 
   67000    299.98564   -1160.7403    6436.3172     11684.31     2042.386 
   67100    300.20954   -1165.3976    6396.1568    11644.275     1938.723 
   67200    298.75731   -1167.7512    6514.5036    11729.244    2008.7978 
   67300    298.11253   -1158.8271    6356.5408    11566.431    1974.2097 
   67400     302.5316   -1162.7193    6489.7892    11790.193    1964.7663 
   67500    298.25577   -1160.3354    6482.6774    11694.119    1872.3284 
   67600     301.9326    -1163.683    6308.5845    11595.228    1881.4826 
   67700    298.60913   -1164.3805    6374.1481    11589.094    1918.6616 
   67800    298.33398   -1159.0626    6476.7113    11691.096    1896.0977 
   67900    301.83168    -1155.955    6476.0231    11768.239    1958.2352 
   68000    301.25601   -1153.1833    6396.8646    11679.554    1887.3578 
   68100      297.713   -1155.3643     6381.454    11586.271    1926.8272 
   68200    298.55469   -1155.5289    6429.6527    11652.287    1892.6813 
   68300    297.73237   -1151.7507    6443.6517    11652.496    1873.2211 
   68400    299.76947   -1159.1936    6427.5103    11672.432    1906.6651 
   68500    296.94816   -1156.3852    6406.9891    11594.446     1811.995 
   68600    296.50525   -1158.5838    6554.0665    11729.862    1898.1102 
   68700    303.67531   -1158.9347     6374.785    11703.407    1912.3025 
   68800     300.4742   -1159.6368    6351.6424    11611.176    1943.3466 
   68900    302.27483    -1158.556    6493.7276     11792.81    1966.9182 
   69000    296.47019   -1154.2448    6482.1304    11661.516    1931.4227 
   69100    300.56189    -1156.936    6419.8839    11683.991    1924.3505 
   69200    301.65457    -1161.939     6344.733    11627.181    1917.2393 
   69300    295.67439    -1162.557    6361.4429    11515.516    1948.2977 
   69400    301.22381   -1163.7239    6483.5706    11755.031    1987.9124 
   69500     303.9078   -1165.8206    6458.9631    11785.666    1892.3444 
   69600    294.47507   -1165.1854    6435.7519    11561.575     1935.421 
   69700    302.62364   -1161.4241    6393.0329    11696.698    1882.5682 
   69800    293.44212   -1157.5428    6595.2325     11706.63    1893.7392 
   69900     299.1222   -1166.5479    6415.5457    11639.285    1825.4826 
   70000    302.94044     -1170.84    6254.8906    11555.908    1830.0429 
   70100    298.62396   -1167.4917    6467.6387     11679.79    1913.8732 
   70200    300.63549   -1165.2624    6471.9743    11729.328    1899.7015 
   70300    295.40638   -1170.9025     6293.657    11433.658    1835.7244 
   70400    298.67261   -1165.9005    6398.0873    11612.869    1946.7167 
   70500    299.79903   -1161.6146    6364.2684      11607.4    1894.2147 
   70600    301.32019   -1162.3387    6424.3631    11699.268    1877.5167 
   70700    297.74655   -1166.9388    6422.2452    11616.205    1846.9482 
   70800    299.02687   -1165.1896    6483.0065    11706.067    1847.1632 
   70900    305.90116   -1163.6375    6415.0263    11786.498    1874.3751 
   71000    299.33407   -1161.6539    6366.3862    11599.545    1893.5691 
   71100    303.88892   -1165.4513    6411.4593    11738.129    1898.1959 
   71200    297.87019    -1164.362    6464.0786    11663.256    1866.1805 
   71300    299.94901   -1161.4934    6453.6952    11700.152    1911.7299 
   71400    305.95031   -1156.9349    6381.6133    11760.837    1937.0037 
   71500     301.9765   -1160.6968    6427.7222     11718.29    1903.4822 
   71600    296.58102   -1159.3322    6378.5883    11555.255    1901.6028 
   71700    305.41312   -1166.7417    6361.1028    11719.044    1918.9218 
   71800    298.05106    -1162.336    6355.1478    11560.215    1803.3639 
   71900    300.82552    -1159.927    6435.7059    11702.455    1861.5732 
   72000    300.53292   -1158.8473     6480.611    11742.188    1979.6333 
   72100    301.69853   -1153.5836    6506.4716    11798.214    1966.1451 
   72200    297.66318    -1156.173    6354.1443    11557.088     1880.534 
   72300    303.81034    -1158.837    6469.8213    11801.426      1928.39 
   72400    298.77207   -1159.5389     6415.247    11638.515    1877.5493 
   72500    305.67742   -1160.0973    6420.2786    11790.511    1896.7223 
   72600    297.41856   -1162.4037    6433.5782    11625.066    1874.1756 
   72700    304.88626    -1164.974     6469.289    11817.742    1812.2567 
   72800    299.17228   -1158.8283    6504.2417     11736.77    1861.5777 
   72900    299.40833   -1163.5954    6308.2689    11541.073    1901.4888 
   73000    299.09658   -1165.9952    6287.9166    11511.661    1905.1398 
   73100    302.26429   -1165.0819    6523.9699    11816.301    1994.4722 
   73200    294.42885   -1161.0353    6450.9967    11579.982    1927.2647 
   73300    305.75139   -1162.3269    6447.9929    11817.575     1927.693 
   73400    301.94203   -1159.5128    6440.3467    11731.362    1894.3811 
   73500    298.34887   -1162.5404    6462.4491    11673.674    1930.8979 
   73600    300.09377   -1155.9897    6398.6725    11653.726    1927.0614 
   73700    296.59568   -1159.4806    6384.1464    11560.977    1916.8892 
   73800    302.13431   -1161.6683    6410.2941    11703.262    1932.8966 
   73900    293.09354     -1160.67    6530.5251    11631.349    1939.2572 
   74000     298.7213    -1163.475    6440.1049    11658.352    1889.4712 
   74100    300.42051    -1162.642     6424.787    11680.168     1944.471 
   74200    305.39218    -1164.833    6355.2966    11714.699    1946.3467 
   74300     299.4403   -1157.5311    6467.6225    11707.174    1938.4874 
   74400    292.40914   -1161.7422    6418.0546    11503.185    1940.9024 
   74500    302.97725   -1165.8543    6438.1167    11744.907    2064.9387 
   74600    295.17158   -1158.1566    6411.0959    11558.827    1936.3618 
   74700    302.05019   -1163.2313    6420.8086    11710.416    1932.0481 
   74800    299.64927    -1156.771    6414.8873    11659.663    1933.4495 
   74900    297.33701   -1158.3586    6488.0924    11681.883    1962.2674 
   75000    302.45027   -1164.2366     6410.098    11707.247    1935.7207 
   75100    296.53024   -1164.1234    6405.3781    11576.168    1939.5013 
   75200    299.75485   -1163.9928     6534.144    11773.954    1985.3029 
   75300    304.65558   -1164.9458    6332.9835    11676.537    1865.2117 
   75400    296.52904   -1164.2766    6422.6757    11593.287    1923.1251 
   75500    304.08669   -1157.9283    6450.3905    11788.808    1930.8367 
   75600    297.16847   -1162.1824    6354.7217    11541.088    1879.7764 
   75700    296.74752   -1164.6109    6410.8432    11585.788    1901.3657 
   75800    301.12886    -1167.135    6386.5404    11652.561    1949.2882 
   75900    298.95423   -1171.8693    6416.5843    11631.413    1905.1887 
   76000     300.8553   -1169.1147    6459.9536    11718.151    1941.8345 
   76100    301.23865    -1171.657     6378.012    11641.856     1904.983 
   76200    304.16919   -1166.0687     6426.919    11758.958    1974.7222 
   76300    297.65319   -1162.0245    6443.1507     11640.03    1944.3627 
   76400    300.05426   -1166.4718    6567.8791    11811.606    2031.3831 
   76500    299.55909    -1163.816    6331.5282    11567.333    1940.4578 
   76600    299.15502   -1165.9123    6432.4385    11657.514    2026.7482 
   76700    300.84702   -1162.0076    6361.2961    11626.424    1865.8357 
   76800    306.20774   -1163.4273    6419.4823    11797.714    1884.4894 
   76900     300.8898   -1166.4471    6469.3947    11730.996    1959.2149 
   77000    303.55607   -1167.2373    6387.5979     11705.37     1905.865 
   77100    300.02642   -1157.5114    6363.3293    11615.422    1902.6622 
   77200    300.60993   -1158.7954    6516.4635    11779.738    1973.4075 
   77300      301.298   -1163.1865    6457.6064    11731.189    1886.3979 
   77400    301.68572   -1157.9734    6290.5147    11577.594    1849.2088 
   77500    296.60384   -1156.1287    6448.4125     11628.77    1936.8041 
   77600    299.68729   -1163.5598    6553.3261    11792.125    1955.7213 
   77700    302.39619   -1159.3771     6494.545    11795.398    1919.0149 
   77800    297.17322   -1157.6618    6425.9748    11616.963    1911.7602 
   77900    297.44512    -1154.002    6416.0286    11616.485    1897.8458 
   78000    295.60748   -1161.1882    6400.0223    11554.034    1898.1124 
   78100    303.47371   -1164.2164    6440.7652    11759.799    1887.5991 
   78200    301.42834   -1157.2294    6458.0227    11740.347     1848.601 
   78300    296.67125   -1158.2746    6391.8592    11571.511    1836.1328 
   78400    296.68466   -1161.8669    6365.2291    11541.575    1822.2814 
   78500    297.86599   -1167.1524     6477.609    11673.906    1919.4836 
   78600     297.6072   -1162.6076    6367.6408    11562.954    1857.5782 
   78700    304.00497   -1158.9205    6504.4256    11840.105    1966.1871 
   78800    297.11393   -1160.5526    6458.0079    11644.838    1967.4394 
   78900    302.66802   -1162.3183    6301.4746    11605.194    1906.9964 
   79000    299.55885   -1163.8167    6401.7334    11637.532    1938.7111 
   79100    300.07368   -1168.9675    6391.5155    11633.162    1855.5281 
   79200    300.66333   -1167.2052    6485.5025    11741.508    1892.9912 
   79300    301.53276   -1169.6739    6448.7785    11720.889    1904.4642 
   79400    294.66127   -1168.7775    6435.0969    11561.305     1852.343 
   79500    298.02462    -1172.512    6364.6501    11558.977    1870.1021 
   79600    300.86622   -1170.4975    6413.6297    11670.677    1943.2526 
   79700    297.34368   -1172.5064    6368.9523    11548.737    1925.0167 
   79800    296.96297   -1160.0684    6518.6684    11702.758    1923.8673 
   79900    299.97972   -1162.8144    6442.3716    11688.164    1938.9782 
   80000    300.75046   -1167.1021    6451.5047    11709.475    1934.0981 
   80100    300.28219   -1163.5873    6388.3305    11639.811    1910.6498 
   80200    302.24283   -1159.8972    6368.1154    11665.172    1956.4961 
   80300    298.99743   -1167.2248     6355.731    11576.128    1894.8603 
   80400    297.60172   -1165.5056    6468.7137    11661.012    1869.4543 
   80500    303.82384   -1165.0459    6452.0034    11777.688    1900.8681 
   80600    301.66867   -1165.4372     6496.747    11775.998    1984.6648 
   80700    295.45178   -1161.7221    6480.8654    11631.017    1907.1798 
   80800    297.28906   -1161.3432    6305.2121    11494.994     1846.765 
   80900    299.64725   -1150.0847    6455.2047    11706.624    1907.3797 
   81000    298.89573   -1155.2211    6460.2527     11690.48    1913.3165 
   81100    300.79855     -1155.93    6420.2901     11690.46    1845.1452 
   81200    300.06434   -1160.5851    6473.5563    11723.385    1925.7872 
   81300    298.79383   -1161.6492    6452.1759    11673.798    1920.6861 
   81400    298.61927   -1160.2019    6371.9157    11591.256     1890.548 
   81500    300.89675   -1158.4017    6361.7769    11631.573    1872.3825 
   81600    298.97208   -1156.0484    6529.8013    11760.833    1928.1928 
   81700    298.50403   -1164.6152    6353.8437    11566.309    1827.7733 
   81800      298.707   -1160.3646    6295.3234    11516.375    1839.8209 
   81900    302.31655   -1159.3625     6509.126    11808.293    1937.4867 
   82000    300.73809   -1162.8076    6534.7695     11796.77    1888.2426 
   82100    302.52987    -1162.944    6416.9585    11717.101    1932.9878 
   82200    297.49716   -1165.5302    6349.8049    11539.845    1936.8762 
   82300    300.30983    -1171.764    6442.3195    11686.214    1910.1668 
   82400     303.0737   -1173.1604    6488.4665    11790.011    1948.9941 
   82500    299.34934    -1172.687    6504.1156    11726.568    1960.1673 
   82600     296.7959   -1163.9212    6426.9999    11603.668    1917.2173 
   82700    304.62416   -1164.2756    6431.5681     11775.12    1970.1533 
   82800    297.60297   -1163.3029    6345.9111    11540.439    1925.6627 
   82900    297.66227   -1161.5945    6247.1908    11444.694    1902.8615 
   83000     301.1788   -1166.5072    6408.7104    11676.426    1943.1195 
   83100    301.87329   -1164.8606    6531.6712     11815.87    1960.6426 
   83200    297.12938   -1165.5136    6484.9713    11667.171    1915.9292 
   83300    304.96641   -1172.5263     6337.347     11679.96    1866.8529 
   83400    294.45509   -1169.7321    6332.6258    11453.475    1846.7238 
   83500    301.26692   -1165.4449    6368.4228    11639.083    1860.5378 
   83600    296.07274   -1167.6433    6409.3541    11566.851    1902.1935 
   83700     301.1178   -1161.0481    6502.0263    11773.898    1938.2086 
   83800    298.67998   -1158.1414         6566    11788.698    1958.9495 
   83900    302.91288   -1160.0663    6343.5908    11654.793    1912.0587 
   84000    296.02346   -1160.2293    6347.0245    11510.882    1916.4586 
   84100    302.62409   -1158.3121    6543.0822     11849.87    1934.2125 
   84200    300.31074    -1161.947    6419.2699    11673.001    1799.8034 
   84300    297.90985   -1164.3124    6477.6931    11677.768    1926.1243 
   84400    302.87699   -1164.9869    6474.2074    11779.723    1912.4614 
   84500    297.99151   -1162.0998    6438.6968    11642.728    1865.7606 
   84600    304.86708   -1162.0884    6514.3531    11865.282     1959.184 
   84700    297.40711    -1159.092    6515.8284    11710.383    1931.6171 
   84800    300.24717   -1157.9956     6322.771    11579.096    1841.6005 
   84900    294.31084   -1164.2349    6362.0213    11485.286    1983.5344 
   85000    302.68414   -1162.7852    6410.7047    11714.302     1966.298 
   85100    299.38327   -1157.5511    6462.1513    11700.464    1937.3606 
   85200    299.38127   -1155.0902    6449.6465    11690.378     1959.866 
   85300    302.58684   -1167.2041    6344.2844    11641.384    1875.2211 
   85400    296.33607   -1167.7265    6433.2973    11596.336    1884.1634 
   85500    304.27284   -1167.0911     6456.023    11789.254    1974.8087 
   85600    301.67215   -1171.2648    6451.1821     11724.68    2002.2154 
   85700    293.62103    -1171.138    6360.3061    11461.931    1904.7235 
   85800     299.9513   -1169.5944    6230.1107    11468.516    1868.3372 
   85900    295.53643   -1168.5162    6541.8509    11687.017    2003.2403 
   86000    298.59601   -1160.2967    6506.6998    11725.449    1928.9884 
   86100    302.29827    -1167.994    6452.1087    11742.253    1938.4741 
   86200    299.55565   -1170.2926    6302.0208    11531.275    1891.5538 
   86300     301.7067   -1171.4887    6424.9926    11699.005    1949.6742 
   86400    299.44429   -1171.0836    6437.4505    11663.535    1883.9194 
   86500    302.30225   -1171.7812    6440.6257    11727.068    1899.9968 
   86600    302.58753   -1162.8576    6421.7009    11723.162    1832.4497 
   86700    299.70293   -1163.9157    6409.9686    11648.746    1852.9938 
   86800    299.39617   -1165.0094    6389.3442    11620.475    1923.0178 
   86900    302.99829   -1167.6497    6344.1183    11649.562    1927.9705 
   87000    295.68993   -1164.7691     6504.153    11656.346    1923.7363 
   87100    304.07012   -1161.1838    6366.8643    11701.672    1919.1523 
   87200     297.6174   -1158.1794    6298.5108    11498.471     1846.751 
   87300    301.33726    -1161.288    6452.7935    11729.114    1878.2029 
   87400    297.53419   -1158.4346    6549.3369    11747.264    1867.3278 
   87500    300.01828   -1159.4125    6301.1126     11551.13    1801.3172 
   87600    298.34506   -1160.8734    6456.2297    11669.041    1838.3919 
   87700    302.24479   -1158.4923    6549.7818    11848.286    1932.1226 
   87800     298.3867   -1157.7455    6395.9094    11612.738    1861.0105 
   87900    300.25097   -1161.0755    6364.3764    11617.702    1940.8595 
   88000    299.74218   -1156.6067    6459.9776    11706.903    1930.8923 
   88100     303.6852   -1159.2415    6441.1267    11769.654     1930.962 
   88200    297.51886   -1160.6422    6417.4744    11612.866    1923.5968 
   88300    300.94265   -1159.3526    6463.8697    11733.695    1879.8935 
   88400    297.75957   -1155.1139     6502.341    11708.403    1887.4084 
   88500    302.74794   -1162.7545    6369.0293     11674.02    1906.1824 
   88600    299.43285   -1161.0564    6302.6278    11538.495    1813.6993 
   88700    298.33894    -1163.885    6481.2852    11690.954    1843.8907 
   88800    302.45179   -1164.7894     6510.907    11807.536    1903.7802 
   88900    294.37272   -1164.7822     6444.255    11568.294    1894.9699 
   89000     296.8093   -1165.1359    6346.1148    11521.854    1844.1275 
   89100    301.84266   -1163.4209    6460.6491    11745.633    1937.8664 
   89200    302.27696   -1168.5006    6343.9778    11633.161    1890.4217 
   89300    296.00658   -1159.9683    6395.9262    11559.684    1858.0131 
   89400     302.3884   -1167.8019    6427.0924    11719.355    1875.9956 
   89500    299.46085   -1168.3199    6478.0671    11707.269    1915.3225 
   89600     301.6836   -1169.8294    6419.0762    11694.254    1882.1917 
   89700    302.86129   -1172.1249    6384.0613    11682.103    1877.5879 
   89800    296.58606   -1170.4675    6451.8058    11617.444    1883.8947 
   89900     298.8932   -1166.7279    6374.3654    11593.032    1877.1328 
   90000    300.55722   -1165.0037    6447.6837    11703.624    1916.6922 
   90100    301.47768   -1164.4334    6364.1889    11640.364    1858.5713 
   90200    299.85767    -1162.007    6407.4386    11651.431    1891.9332 
   90300     304.0043    -1166.356    6385.5811    11713.811    1868.6033 
   90400    299.71297    -1163.816    6433.6207    11672.712    1876.6596 
   90500    294.16699   -1164.2839    6519.6287    11639.771     1872.034 
   90600    301.55126    -1166.414    6408.3276    11684.094    1876.4783 
   90700    298.95844   -1163.0919    6379.9698    11603.666    1904.4538 
   90800    303.88063   -1162.6113    6410.1688    11739.501    1882.2536 
   90900    297.70337   -1162.9046    6515.8319    11712.903     1958.939 
   91000    294.68406   -1156.4933    6516.5003     11655.48    1922.9003 
   91100     300.3181   -1162.8302    6451.7275    11704.733    1867.0617 
   91200    302.37717    -1159.458    6307.3218    11607.688    1898.2897 
   91300    299.17963   -1159.0756    6540.0778    11772.516    1969.8258 
   91400    300.52223   -1165.9104    6431.3259    11685.612    1911.8673 
   91500     301.8613   -1169.0828    6327.5709    11607.292    1850.1775 
   91600    300.46983   -1161.0363    6608.1217    11866.162    1943.6539 
   91700    304.90076   -1162.4976    6378.5157    11729.755    1865.3818 
   91800    300.35304   -1166.4809     6451.496    11701.597    1944.0964 
   91900    302.44919    -1165.889    6555.7486    11851.222    2000.4193 
   92000    303.11253   -1162.0397    6438.6929    11752.187    1958.6845 
   92100    301.50656   -1163.3181    6357.5285    11635.435    1949.5032 
   92200    298.59501   -1157.0962    6466.7961    11688.724    1899.5137 
   92300    302.58224   -1160.7576    6450.1182    11753.566    1888.4338 
   92400    301.79637   -1165.2084    6335.7632    11617.971    1929.1865 
   92500    304.20325    -1165.908    6479.8843    11812.812    1987.5793 
   92600    305.52477   -1166.3093     6454.137    11814.896    1982.0393 
   92700    299.17009   -1164.5452    6403.5419    11630.307     1941.775 
   92800    297.52165   -1163.2809    6451.2461    11644.059    1903.2892 
   92900    304.13584   -1168.5433    6438.2389    11767.091    1863.9971 
   93000    299.81692   -1167.3732    6526.5879    11764.343    1962.9046 
   93100    299.49498   -1167.5103    6434.7008    11665.441    2006.6609 
   93200     300.2515   -1169.1933      6417.59    11662.809    1916.7817 
   93300      300.011   -1165.4893    6472.6522    11716.438    1884.0252 
   93400    294.97367   -1155.6177    6457.3487    11603.391    1904.9555 
   93500    299.91251   -1164.2043    6355.5246    11598.491    1900.0697 
   93600    301.15585   -1166.1711    6472.2354    11739.797     1927.836 
   93700    295.03293   -1163.1944    6347.8998    11487.631    1861.4656 
   93800    299.98111   -1161.2813    6387.0755     11634.43    1870.9685 
   93900    299.93839   -1157.4413    6547.5531    11797.835    1910.7274 
   94000    298.96652   -1160.8726    6400.5159    11626.604    1958.2325 
   94100    298.90021   -1157.7105     6409.946     11637.78    1933.5911 
   94200     303.1325   -1159.8896    6562.2519    11878.323    1940.1893 
   94300    300.68114   -1162.1202    6383.1276    11644.599    1903.1067 
   94400    291.51448   -1166.6894    6333.8586    11394.929    1884.0462 
   94500    305.58964   -1163.9751     6462.064    11826.543    1915.4013 
   94600    296.38075   -1162.6658    6314.7779    11483.832    1821.7582 
   94700    302.75499   -1163.8277    6473.3722     11777.44    1886.7202 
   94800    300.96041   -1158.1707    6507.6385    11779.025    1877.1812 
   94900    300.75975   -1160.2938    6429.8578    11694.834    1897.3764 
   95000    296.36398   -1162.4521    6306.4037    11475.313    1877.1945 
   95100    301.24386   -1163.7326    6411.0449    11682.925     1864.517 
   95200    303.08358   -1165.6951    6554.3265    11863.547    1954.6909 
   95300    297.83637   -1166.9959    6422.5147    11618.336    1871.3557 
   95400    300.41352   -1167.3983    6487.6447     11738.12    1897.8349 
   95500    302.40078    -1170.578    6448.9903    11738.741    1923.3805 
   95600    295.93684   -1168.9242    6385.2223    11538.535    1921.6054 
   95700    303.77456   -1163.4689    6475.7191    11801.928    1952.7461 
   95800    298.35555   -1164.0068     6384.872    11594.774    1819.3478 
   95900    302.58133   -1167.1655    6522.8496     11819.87    1928.5616 
   96000     300.5096   -1163.2264    6372.3255    11629.026    1852.1708 
   96100    295.50406   -1162.9847    6368.4726    11518.479    1837.5554 
   96200    301.56545    -1166.436    6396.8566    11672.904    1890.4793 
   96300    297.49899   -1163.0984    6492.4269    11684.938    1930.6088 
   96400    297.27737   -1161.3402    6385.0918    11574.626    1900.8156 
   96500    300.99046   -1164.4056    6451.8491    11717.643    1936.2286 
   96600    303.30731   -1167.3297    6548.0098    11860.375    1936.5819 
   96700    299.83366   -1167.8611    6453.8645     11691.49    1918.9926 
   96800    298.45936   -1171.2439    6340.5439    11545.426     1900.941 
   96900     302.1463   -1166.2048    6486.5616    11775.249    1933.7363 
   97000    301.09815    -1159.696     6412.766     11685.57    1933.3076 
   97100    303.23434   -1160.5833    6460.2871     11777.84    1969.2068 
   97200    297.16011   -1154.0986    6465.2573    11659.529    1919.4873 
   97300    303.17428   -1166.1431    6415.9396     11726.65    1940.7854 
   97400    297.61727   -1165.4118    6393.7625    11586.487     1942.113 
   97500    298.44146   -1163.4173    6432.4605    11644.787    1925.7389 
   97600    299.20777    -1164.758    6516.3281    11743.685    1961.2886 
   97700    297.01701   -1164.8332    6443.0069    11623.486    1904.2799 
   97800    298.42727    -1165.394    6456.6979    11666.745    1918.0842 
   97900    304.06386   -1158.2833    6516.0768    11853.651    1986.0051 
   98000     299.9418   -1162.2191    6287.5083    11533.085    1905.5589 
   98100    299.92137   -1156.8304    6413.1094    11663.639    1913.7148 
   98200    303.51914   -1162.3039    6561.6601    11883.577    1967.5606 
   98300    299.11999   -1160.0761    6490.3499    11720.514    1944.8845 
   98400    304.68673   -1166.9523     6301.922    11644.134    1920.2524 
   98500    297.06908     -1168.48    6358.5871    11536.532    1907.4265 
   98600    301.55855   -1164.0389    6438.0609    11716.358    1887.3565 
   98700    296.74726   -1163.9236    6431.5466    11607.173    1833.8346 
   98800     301.9732   -1160.1059    6408.7411    11699.829    1880.0238 
   98900    298.83832   -1157.3701     6455.798     11682.65    1927.7011 
   99000    297.35946   -1160.7937    6392.2769    11584.112    1984.5764 
   99100    303.57913    -1157.405    6293.5077    11621.605    1932.8487 
   99200    301.66654   -1158.2223    6533.3924    11819.813     2030.556 
   99300     302.7273   -1160.3992    6393.1489    11700.054    1961.3994 
   99400    301.11325   -1161.8167    6422.2933    11693.299    1920.6428 
   99500    294.64804   -1167.1741    6474.3779    11601.907    1912.0093 
   99600    301.56939    -1165.492    6408.1124    11685.188    1937.3515 
   99700    302.15894    -1166.587    6457.3424    11745.918    1906.3386 
   99800    297.87425   -1163.5514    6475.2945    11675.369    1911.3752 
   99900    298.44123   -1163.7889    6360.2908    11572.241    1839.4347 
  100000    302.51674   -1161.2882    6503.4718     11804.99    1936.8717 
  100100    295.57327   -1160.3729    6531.1891    11685.286    1981.6507 
  100200    302.98505    -1160.749    6318.6839    11630.746    1967.5325 
  100300    300.47242   -1159.2547    6386.9676    11646.845    1915.1476 
  100400    296.91565   -1161.4912    6512.5869    11694.243     1985.892 
  100500    302.78422   -1162.8309    6480.7086    11786.398    1952.4418 
  100600    296.64555   -1166.4033    6391.1322    11562.106    1877.3425 
  100700    299.11262   -1161.3355    6386.1913    11614.938    1911.5016 
  100800    303.43827   -1167.3088    6391.9805    11707.165    1936.7849 
  100900    296.83804   -1162.9956    6453.8251    11632.319    1910.9799 
  101000    299.48378   -1166.4342    6342.7981    11574.375    1926.4718 
  101100    297.74431   -1165.9637    6398.9888    11593.875    1905.4758 
  101200     301.5685   -1166.0133    6397.2852     11673.82    1891.2413 
  101300    294.38691   -1169.1245    6410.7741    11530.774    1896.3151 
  101400    300.91441   -1165.1415    6490.5669        11754    1870.8219 
  101500    297.58932   -1168.8109    6504.0437    11692.772    1875.0368 
  101600    303.06417   -1167.2337    6394.4838    11701.751    1853.3988 
  101700    295.97697   -1169.1792    6398.5344    11552.449    1858.5021 
  101800    306.74144   -1159.9044    6399.3003    11792.456    1903.8324 
  101900    297.39039   -1160.4925    6410.0268    11602.824    1875.3895 
  102000    299.51316   -1157.4623    6504.1708    11745.348    1900.6325 
  102100    294.29925   -1159.4933    6523.1803    11650.939    1911.9784 
  102200    301.63244   -1161.7461     6477.917    11760.085    1974.3109 
  102300    305.75102   -1162.7645    6267.4923    11636.629    1912.6495 
  102400    301.66701   -1158.8446    6363.4878    11649.296    1900.8896 
  102500    298.43738   -1159.4101    6511.5857    11727.832    1949.1834 
  102600    302.55993   -1162.2705    6456.1004    11757.559    1870.9404 
  102700    295.17139   -1159.6211    6378.3057    11524.568    1848.7211 
  102800     303.9125   -1156.1432    6399.0125    11735.494    1893.4641 
  102900    297.72407    -1161.783    6389.2674    11587.902    1916.1127 
  103000    304.18589   -1161.6175    6361.4857    11698.333    1983.2503 
[...]
  588400    302.11933   -1157.4544    6356.0897    11652.951    1932.1564 
  588500    298.74973   -1161.9501    6432.4289    11652.808    1880.1647 
  588600    296.76125   -1160.6264    6473.6451    11652.868    1899.8849 
  588700    299.88034   -1157.4788    6403.7418    11652.746    1897.4496 
  588800    303.22201   -1156.2126    6331.1156    11652.776    1858.3255 
  588900    295.61642    -1156.959    6494.3787    11652.811    1917.6784 
  589000    300.90195   -1154.7891    6379.2412    11652.761     1860.269 
  589100    301.11495   -1156.8225    6376.6955    11652.732    1822.6507 
  589200    298.28875   -1155.1062    6435.3841    11652.759     1857.924 
  589300    297.91995   -1156.9471    6445.1307    11652.786    1826.1536 
  589400    299.40564   -1158.2538    6414.6867    11652.775    1876.5343 
  589500    301.84548   -1158.4073    6362.6931    11652.751    1857.1693 
  589600    296.47331   -1159.8837    6478.9908    11652.804    1920.6924 
  589700    298.12426   -1158.2751     6442.132    11652.824     1892.522 
  589800    297.65692   -1157.7963    6451.7769    11652.964    1925.7045 
  589900    301.51908    -1161.808    6373.2725    11652.957    1914.3667 
  590000    303.73386   -1158.6324    6322.7132    11652.889    1871.4992 
  590100    298.87835   -1161.4138    6429.1837    11652.847    1850.6497 
  590200    301.33464   -1162.5168    6377.8857    11652.921    1860.1295 
  590300    299.98076   -1159.3065    6403.6986    11653.021    1920.4053 
  590400    299.87379   -1168.7804    6415.4754    11653.038    1930.2693 
  590500    300.16269   -1169.7089    6410.2106    11653.017    1908.5208 
  590600     297.8959   -1166.5415    6455.5334    11653.081    1908.9679 
  590700    300.73187   -1169.8459    6398.2791    11653.108    1918.0736 
  590800    299.06908   -1161.6576      6425.55    11653.044    1857.5272 
  590900    299.38541   -1162.0471    6419.2165    11653.079     1922.758 
  591000    302.22588   -1162.7565    6359.2404    11653.076    1936.0237 
  591100    300.59013   -1168.6289    6400.0033    11653.021    1915.0394 
  591200    300.21409   -1160.9287    6400.3295    11653.014     1910.624 
  591300    303.19296    -1167.624    6343.4258    11653.054    1887.5064 
  591400    295.69842   -1159.7738    6495.6178    11652.987    1901.0448 
  591500    301.34781   -1164.5628    6379.7346    11653.005    1834.8094 
  591600    300.57497   -1165.8187    6397.4375    11652.942    1935.4705 
  591700     294.9083   -1158.1337    6510.8251    11652.955    1951.6318 
  591800    303.45271   -1156.7178    6326.7413    11652.825    1850.8619 
  591900    299.38718   -1156.0165     6412.992    11652.923    1868.4413 
  592000    299.70718   -1160.1888    6410.2596    11652.855    1889.0188 
  592100    299.39559    -1155.717    6412.3452    11652.756    1911.8314 
  592200    299.29669   -1162.1174    6420.8274    11652.725    1855.3947 
  592300    296.70254   -1162.4917    6476.5954    11652.698    1879.4216 
  592400     302.0736   -1153.9976    6353.4398    11652.781    1846.7129 
  592500    299.82445   -1157.2424    6404.6697    11652.717    1835.8817 
  592600    298.67212    -1162.278    6434.3535    11652.747    1853.8828 
  592700    300.45718   -1155.2848    6389.3192    11652.841    1864.7271 
  592800    301.52791   -1155.4366    6366.6378    11652.882     1830.631 
  592900    298.71685    -1164.021    6435.2913    11652.897    1927.8015 
  593000     298.6057    -1161.251    6434.8584     11652.86    1884.0797 
  593100    299.84926   -1155.3312    6402.4098    11652.898    1855.7407 
  593200    301.21687   -1159.5549    6377.4491     11652.93    1935.4905 
  593300    301.45907   -1167.4564    6380.1358     11652.89    1924.2648 
  593400    297.12043   -1161.3439    6466.7548    11652.933    1900.6013 
  593500    301.90642   -1171.5448    6374.7778        11653    1860.3111 
  593600    299.04135   -1166.6912    6431.1593    11653.028    1903.2752 
  593700    300.84881   -1161.7843    6387.6006     11652.99    1887.4759 
  593800    300.17418   -1165.5972    6405.8284    11652.992    1880.7224 
  593900    297.69922   -1163.6626    6456.8638    11653.088    1951.4435 
  594000    302.18258   -1168.4465    6365.7475    11652.968    1915.9638 
  594100    299.02904   -1156.9672    6421.6569    11652.986    1921.3053 
  594200    300.41509   -1172.2533      6407.39    11653.044    1887.8812 
  594300    299.46013   -1163.8537    6419.3995    11653.052    1896.8509 
  594400    303.57028   -1167.5948    6335.2278    11652.946    1914.3083 
  594500     301.8933   -1165.4847    6369.0122    11653.015       1888.8 
  594600    297.74285    -1158.904    6451.0394    11652.954     1917.819 
  594700    300.35704   -1164.7346    6400.9339    11652.867    1949.5677 
  594800    300.92376   -1165.0914    6389.1905    11652.874    1882.6763 
  594900    300.45761   -1161.7746    6395.8857    11652.927    1877.7212 
  595000     297.8639    -1159.822      6449.28    11652.863    1862.5804 
  595100    301.56542   -1160.9592    6371.2634    11652.787    1866.3132 
  595200    297.96247   -1160.4952    6447.7842      11652.8     1862.651 
  595300     299.5025   -1160.0435    6414.4709    11652.839    1848.2556 
  595400    299.14623   -1157.2455    6419.2706    11652.825    1808.3881 
  595500    300.92395   -1156.7377    6380.7674    11652.808    1824.1228 
  595600    302.44956   -1160.6853    6352.0995    11652.785    1828.5031 
  595700    296.64785   -1159.5211    6474.9141    11652.819    1907.3631 
  595800    298.23793   -1163.9052    6445.3057    11652.796    1871.3246 
  595900    300.73675   -1163.7458    6391.8218    11652.855    1893.3904 
  596000    294.82638   -1158.8833    6513.2291    11652.859    1921.5127 
  596100    297.42977   -1158.9403    6457.7972    11652.988    1853.3457 
  596200    299.30614    -1158.916    6417.5355    11652.836    1837.1828 
  596300     303.2515   -1161.1436    6335.5029    11652.862     1900.187 
  596400    296.48534   -1161.9475    6480.9687    11652.976    1885.2862 
  596500    299.03139   -1161.3303    6425.8771    11652.894    1849.1728 
  596600    298.86107   -1161.5237    6429.8142    11652.999     1819.072 
  596700    300.91209   -1169.0938    6393.6802    11653.111    1859.7223 
  596800    299.29744   -1162.7922    6421.7705    11653.009    1868.1403 
  596900    299.08305   -1163.1297    6426.6779    11652.999    1878.0854 
  597000    301.02959   -1168.4178    6390.4115    11653.029    1944.1621 
  597100    299.76239   -1166.1423    6415.1957    11653.017    1901.4616 
  597200    300.20775   -1166.8338    6406.3915    11653.036    1898.2065 
  597300    299.11994   -1168.5512    6431.3091    11652.997    1907.7324 
  597400    297.06642   -1165.0552    6471.7249    11653.038    1934.4442 
  597500    302.76283    -1168.157    6353.0335     11652.94    1945.8615 
  597600    298.45905   -1164.5957    6441.4357     11652.96    1960.9542 
  597700    297.66445   -1168.2597    6462.0518    11652.936    1839.0438 
  597800    302.99965      -1164.8    6344.6374     11652.96     1856.293 
  597900    293.93126   -1164.7896    6538.4057    11653.006    1919.9252 
  598000    300.83026   -1163.0792    6389.2743    11652.972    1909.8056 
  598100    298.95571   -1160.8334    6427.1915    11653.088    1918.4737 
  598200    297.71469   -1164.8241    6457.6474    11653.041    1949.7772 
  598300    301.73977    -1163.981    6370.7205    11652.947    1951.1374 
  598400    299.99894   -1161.1274    6404.9601     11652.85    1895.9748 
  598500    299.86122   -1161.8224    6408.6722    11652.925    1868.3206 
  598600    297.02867   -1156.9188    6464.3296    11652.973    1932.9496 
  598700    301.26537   -1161.9879    6378.8612    11652.946    1841.6591 
  598800    298.50352   -1159.5006    6435.3942    11652.963    1873.8841 
  598900    300.50602    -1165.316    6398.4383    11652.972    1864.5845 
  599000     298.4068   -1167.1076     6445.028    11652.924    1857.0018 
  599100    300.71704   -1156.5923    6385.2425    11653.008    1868.1443 
  599200    304.03796   -1164.5432     6322.182    11652.943    1942.9618 
  599300    295.75437   -1162.5401    6497.1566    11652.955    1935.9449 
  599400    297.09207   -1160.6294    6466.6684    11652.955    1920.7252 
  599500    300.10055   -1161.9888    6403.7762    11652.975    1960.5135 
  599600    299.15193   -1159.1239    6421.2355    11653.033    1937.5435 
  599700    299.48853   -1162.2853     6417.146    11652.974    1980.4856 
  599800    298.78274    -1164.866     6434.775    11652.944    1962.6648 
  599900    302.30712   -1168.2109    6362.9351    11653.052    1880.1902 
  600000    303.00715   -1170.5705    6350.3134    11653.026    1886.3206 
Loop time of 278.387 on 8 procs for 300000 steps with 7168 atoms

Pair  time (%) = 137.524 (49.4004)
Bond  time (%) = 81.0462 (29.1128)
Neigh time (%) = 19.5517 (7.02323)
Comm  time (%) = 30.1598 (10.8338)
Outpt time (%) = 0.477352 (0.171471)
Other time (%) = 9.62748 (3.45831)

Nlocal:    896 ave 905 max 887 min
Histogram: 1 0 1 1 1 2 0 0 1 1
Nghost:    2841.62 ave 2851 max 2829 min
Histogram: 1 0 1 1 0 1 0 1 2 1
Neighs:    23642.2 ave 23959 max 23346 min
Histogram: 1 1 1 0 2 0 1 0 1 1

Total # of neighbors = 189138
Ave neighs/atom = 26.3864
Ave special neighs/atom = 157.056
Neighbor list builds = 3047
Dangerous builds = 0
# −−−−−−−−−−−−−− Flux calculation in nve −−−−−−−−−−−−−−−
reset_timestep  0
compute         PE all pe/atom
compute         KE all ke/atom

variable        CX atom (vx*(c_KE+c_PE))
compute         Jcx all reduce sum v_CX

variable        CZ atom (vz*(c_KE+c_PE))
compute         Jcz all reduce sum v_CZ

variable        CY atom (vy*(c_KE+c_PE))
compute         Jcy all reduce sum v_CY

compute         SA all stress/atom virial

variable        VX atom -(c_SA[1]*vx+c_SA[4]*vy+c_SA[5]*vz)*1.4593e-5
compute         Jvx all reduce sum v_VX

variable        VZ atom -(c_SA[3]*vz+c_SA[6]*vy+c_SA[5]*vx)*1.4593e-5
compute         Jvz all reduce sum v_VZ

variable        VY atom -(c_SA[2]*vy+c_SA[6]*vz+c_SA[4]*vx)*1.4593e-5
compute         Jvy all reduce sum v_VY

variable        Jx equal (c_Jcx+c_Jvx)/vol
variable        Jz equal (c_Jcz+c_Jvz)/vol
variable        Jy equal (c_Jcy+c_Jvy)/vol

fix             JJTx all ave/correlate $s $p $d                 v_Jx type auto file J0Jt_tx.dat ave running
fix             JJTx all ave/correlate 5 $p $d                 v_Jx type auto file J0Jt_tx.dat ave running
fix             JJTx all ave/correlate 5 20000 $d                 v_Jx type auto file J0Jt_tx.dat ave running
fix             JJTx all ave/correlate 5 20000 100000                 v_Jx type auto file J0Jt_tx.dat ave running

fix             JJTz all ave/correlate $s $p $d                 v_Jz type auto file J0Jt_tz.dat ave running
fix             JJTz all ave/correlate 5 $p $d                 v_Jz type auto file J0Jt_tz.dat ave running
fix             JJTz all ave/correlate 5 20000 $d                 v_Jz type auto file J0Jt_tz.dat ave running
fix             JJTz all ave/correlate 5 20000 100000                 v_Jz type auto file J0Jt_tz.dat ave running

fix             JJTy all ave/correlate $s $p $d                 v_Jy type auto file J0Jt_ty.dat ave running
fix             JJTy all ave/correlate 5 $p $d                 v_Jy type auto file J0Jt_ty.dat ave running
fix             JJTy all ave/correlate 5 20000 $d                 v_Jy type auto file J0Jt_ty.dat ave running
fix             JJTy all ave/correlate 5 20000 100000                 v_Jy type auto file J0Jt_ty.dat ave running

run             1000000
Memory usage per processor = 13.8919 Mbytes
Step Temp E_pair E_mol TotEng Press 
       0    303.00715   -1170.5705    6350.3134    11653.026    1886.3206 
     100    298.38489   -1170.8808    6449.4229    11653.077    1898.9746 
     200    299.48459   -1166.3987     6421.476    11653.106    1887.2206 
     300     298.3847   -1166.1762    6444.7179    11653.073    1947.5559 
     400    301.60061   -1162.4828    6372.3243    11653.076    1918.7042 
     500    301.95548   -1164.1834    6366.4056    11653.038    1886.9733 
     600    298.26324   -1160.3468    6441.4392    11653.029    1880.9413 
     700    301.06684   -1171.8043    6393.0055    11653.032    1828.2079 
     800    297.75315   -1166.2907    6458.2788    11653.027    1868.5374 
     900    301.48853   -1163.2298    6375.4072    11653.017    1910.6957 
    1000    296.35015   -1172.7143    6494.6959    11653.048    1948.7141 
    1100    299.07485   -1168.6657    6432.4184    11653.028    1929.1157 
    1200    299.07004    -1166.462    6430.2624    11652.973    1930.3691 
    1300    300.66191   -1155.9964    6385.8365    11653.021    1822.4022 
    1400    299.70785   -1162.5375    6412.6281    11652.889    1894.3834 
    1500     300.5421    -1165.655    6397.9855    11652.951    1909.9843 
    1600    300.15657   -1163.7888    6404.3126    11652.908    1861.1486 
    1700    297.28542   -1166.8226    6468.6549    11652.879    1940.8087 
    1800    296.15216   -1161.8135    6487.8576    11652.881    1891.5581 
    1900    295.10784   -1165.0516     6513.448    11652.923    1920.9013 
    2000    297.66561   -1161.4834    6455.2425    11652.928    1944.3154 
    2100    299.99445   -1159.7946     6403.782    11652.909    1848.6205 
    2200    297.79855   -1159.5186    6450.3478    11652.838    1817.5408 
    2300    298.67747   -1159.9035    6431.9488    11652.831    1870.6785 
    2400    298.06467    -1156.551    6441.6779    11652.821     1893.358 
    2500    304.10208   -1156.2749    6312.3985    11652.798    1844.4152 
    2600    297.92836   -1161.3346     6449.399    11652.847    1906.4991 
    2700    298.88505   -1162.0778    6429.7301    11652.873    1886.5397 
    2800    299.25384   -1162.6233    6422.3829    11652.859      1834.28 
    2900    304.07099   -1162.4534    6319.3774    11652.934    1804.9694 
    3000    297.76332   -1162.8398    6454.5283    11652.945    1848.0457 
    3100    299.44228   -1169.4174    6425.2035    11652.911    1861.9501 
    3200    297.88446    -1165.435    6454.5118    11652.921    1931.0482 
    3300      300.266   -1168.3661     6406.625    11652.981    1919.4774 
    3400    300.33827   -1165.8315    6402.5395    11652.974    1884.0086 
    3500    300.60753   -1163.7237    6394.7267    11653.022     1886.684 
    3600     300.2759   -1166.2908    6404.3645    11653.008    1887.5345 
    3700    301.31457   -1166.6172    6382.4838     11652.99    1880.2721 
    3800     299.5328   -1169.9295    6423.9445    11653.074    1871.9072 
    3900    299.45225   -1166.9831    6422.6639    11653.019    1869.2443 
    4000    298.76603   -1173.5656    6444.0074     11653.12    1867.2394 
    4100    299.40414   -1168.3136    6425.1236     11653.12    1833.3131 
    4200     297.1574   -1168.3225    6473.1463    11653.136    1970.0755 
    4300    302.87156   -1169.5539    6352.2081     11653.04    1948.9875 
    4400    300.30416   -1162.2361    6399.7687     11653.07    1945.2293 
    4500    297.73611   -1167.2746     6459.647    11653.047    1952.4827 
    4600    299.25289   -1167.9194    6427.8832    11653.043    2011.2741 
    4700    299.63219   -1169.8794    6421.7805    11653.083    1976.4312 
    4800    297.91167   -1169.6614    6458.3158     11653.08    1925.6205 
    4900    300.63088   -1172.5534    6403.0418    11653.006    1886.2362 
    5000    297.69606   -1169.4358    6462.6446    11653.028    1882.5914 
    5100    296.97471   -1171.2865    6479.9348    11653.057     1986.962 
    5200    298.89862    -1165.014    6432.5111    11653.008     1946.898 
    5300    301.14164   -1163.5206    6383.0377    11652.946    1936.4707 
    5400    297.97866   -1162.3833    6449.4938    11652.967    1963.0314 
    5500    299.16199   -1163.9553    6425.7974    11652.979    1911.0539 
    5600    300.19745   -1162.2437    6401.9187    11652.933     1877.365 
    5700    299.95942   -1163.6705     6408.404    11652.906     1932.705 
    5800    300.53331   -1169.6336    6402.2673    11653.067    1949.0523 
    5900    299.90582   -1165.6872    6411.6559    11652.996    1864.5266 
    6000    296.09585   -1169.3318    6496.7592    11653.061    1910.0957 
    6100    298.81377   -1163.8334    6433.2101    11653.074     1928.616 
    6200    303.03544   -1162.3782    6341.4549    11652.964    1866.6936 
    6300    297.41142   -1163.2856    6462.5458    11652.999    1968.0483 
    6400     300.7233   -1158.1433    6386.6163    11652.965     1916.953 
    6500    299.70459   -1160.2789     6410.416    11652.866    1927.3807 
    6600    298.97027   -1163.3727     6429.234    11652.902    1874.8694 
    6700    300.41132   -1162.7401    6397.8893    11652.976    1890.2755 
    6800     299.5657   -1167.8103    6420.9962    11652.947    1922.2471 
    6900    296.16652    -1170.514    6496.3826    11653.012    1935.8871 
    7000     302.8149   -1170.3489    6354.2034     11653.03    1895.0428 
    7100    298.10607   -1171.8332    6456.2661    11653.012    1902.3263 
    7200     299.1741    -1170.994    6432.6149    11653.017     1942.808 
    7300    301.93753   -1167.9584    6370.5263        11653    1958.3904 
    7400    298.60009   -1165.7748    6439.6138    11652.972    1945.3571 
    7500    297.88736    -1163.139    6452.1619    11652.929    1937.9025 
    7600    302.60882   -1162.0091    6350.1858     11652.95    1951.7994 
    7700    297.01003   -1163.1879    6470.9958    11652.971    1898.1624 
    7800     299.3777   -1168.2801    6425.5289    11652.994    1920.8003 
    7900    302.09424   -1171.6074    6370.8008    11652.973    1859.1072 
    8000    298.00022   -1170.0984    6456.7934    11653.012    1889.5001 
    8100    299.59617    -1166.798    6419.4876    11653.102    1867.3101 
    8200    298.73488   -1164.6405    6435.6124    11652.984    1885.0696 
    8300    301.88646   -1161.4764    6365.1019    11652.966     1852.149 
    8400    297.05061   -1160.1977    6467.1794    11653.012    1957.8765 
    8500    299.91394   -1164.6716    6410.3646    11652.894    1913.7575 
    8600    297.68779   -1172.2448     6465.599    11652.997    1980.1811 
    8700    301.64153   -1169.8513    6378.7171    11652.974    1851.4942 
    8800    298.26693   -1164.5351    6445.4589    11652.939    1848.1689 
    8900    297.50462   -1165.3112    6462.6005    11653.019    1888.7643 
    9000    298.44678   -1168.0771    6445.3036    11653.084     1853.344 
    9100    302.14426   -1167.8813    6366.1695    11653.137     1850.318 
    9200    301.83508   -1165.8343    6370.6472    11653.056    1842.8175 
    9300    302.31554   -1166.4216    6360.8257    11652.912    1810.3235 
    9400    297.61811   -1167.4598    6462.2813    11652.976    1874.2355 
    9500    302.69041   -1165.9504    6352.3726    11652.938     1852.916 
    9600    296.74209   -1163.7359    6477.2842    11652.988    1917.2989 
    9700    300.31723   -1169.1106    6406.2578    11652.964    1904.4013 
    9800    300.69691   -1162.7347    6391.7595    11652.953      1867.42 
    9900    296.54608   -1167.7706    6485.5597    11653.041    1948.7712 
   10000    295.54241   -1163.0613    6502.2245    11652.973    1938.6263 
Loop time of 1406.83 on 8 procs for 1000000 steps with 7168 atoms

Pair  time (%) = 564.587 (40.1318)
Bond  time (%) = 297.463 (21.1442)
Neigh time (%) = 65.2411 (4.63744)
Comm  time (%) = 107.299 (7.62702)
Outpt time (%) = 0.00365573 (0.000259855)
Other time (%) = 372.239 (26.4593)

Nlocal:    896 ave 903 max 890 min
Histogram: 1 0 0 2 2 1 1 0 0 1
Nghost:    2846.38 ave 2852 max 2836 min
Histogram: 1 0 0 0 1 1 0 1 3 1
Neighs:    23614.5 ave 24015 max 23252 min
Histogram: 2 0 1 1 0 0 1 1 1 1

Total # of neighbors = 188916
Ave neighs/atom = 26.3555
Ave special neighs/atom = 157.056
Neighbor list builds = 10139
Dangerous builds = 0
