LAMMPS (11 Jun 2012)
# Initialization
atom_style      full
units           real
variable        T equal 300
variable        dt equal 1.0
variable        seed equal 123464
variable        radius equal 0.5
variable        sizet equal 4
variable        sizeb equal -4
variable        p equal 20000    # correlation length
variable        s equal 5        # sample interval
variable        d equal $p*$s    # dump interval
variable        d equal 20000*$s    variable        d equal 20000*5    
# convert from LAMMPS real units to SI
variable        kB equal 1.3806504e-23    # [J/K] Boltzmann
variable        kCal2J equal 4186.0/6.02214e23
variable        A2m equal 1.0e-10
variable        fs2s equal 1.0e-15
variable        convert equal ${kCal2J}*${kCal2J}/${fs2s}/${A2m}
variable        convert equal 6.9510174124148567155e-21*${kCal2J}/${fs2s}/${A2m}
variable        convert equal 6.9510174124148567155e-21*6.9510174124148567155e-21/${fs2s}/${A2m}
variable        convert equal 6.9510174124148567155e-21*6.9510174124148567155e-21/1.0000000000000000777e-15/${A2m}
variable        convert equal 6.9510174124148567155e-21*6.9510174124148567155e-21/1.0000000000000000777e-15/1.0000000000000000364e-10
variable        b_eq equal 10.0/3.0

# setup problem
dimension       3
boundary        p p p
neighbor        2    bin
pair_style      lj/cut 10.0
bond_style      morse
read_data       lammps.data
  9 = max bonds/atom
  orthogonal box = (0 0 0) to (80 80 80)
  2 by 2 by 2 MPI processor grid
  7168 atoms
  33696 bonds
  10 = max # of 1-2 neighbors
  86 = max # of 1-3 neighbors
  824 = max # of 1-4 neighbors
  164 = max # of special neighbors
pair_coeff      1 1 0.000 3.500
pair_coeff      2 2 0.000 3.500
pair_coeff      1 2 0.105 3.500
bond_coeff      1 10 1.8 ${b_eq}
bond_coeff      1 10 1.8 3.3333333333333334814
bond_coeff      2 5 0.805 7.4536
bond_coeff      3 10 1.8 ${b_eq}
bond_coeff      3 10 1.8 3.3333333333333334814
bond_coeff      4 5 0.805 7.4536
velocity        all create $T ${seed} mom yes rot yes dist gaussian
velocity        all create 300 ${seed} mom yes rot yes dist gaussian
velocity        all create 300 123464 mom yes rot yes dist gaussian
timestep        ${dt}
timestep        1
thermo          100
dump            T1 all cfg 600000 *.cfg id type xs ys zs
dump            T2 all xyz 10000 traj.xyz
#dump_modify    1 element Cu
# −−−−−−−−−−−−− Equilibration and thermalisation −−−−−−−−−−−−−−−−
fix             NVT all nvt temp $T $T 10
fix             NVT all nvt temp 300 $T 10
fix             NVT all nvt temp 300 300 10
run             300000
Memory usage per processor = 11.5453 Mbytes
Step Temp E_pair E_mol TotEng Press 
       0          300   -906.89526 0.00012694983    5502.1446    343.62551 
     100    244.80819   -935.80086    6993.8549    11288.005    2150.7486 
     200    295.29254   -993.63216    10114.063    15428.903    1186.1301 
     300    303.53705    -990.2411    8501.5878     13995.95    513.42541 
     400    299.72017   -969.36754    6480.4593    11914.153    927.22259 
     500    299.35582   -950.38803    5663.9422    11108.832    1310.5435 
     600    298.53864   -947.47727    5595.9398    11026.283    1240.6386 
     700    299.47404   -958.77345    6348.4707    11787.501    1153.8299 
     800    299.16853   -970.49066    7192.1311    12612.917    1152.0092 
     900    303.81052   -973.58642    7192.3526    12709.212    1180.2742 
    1000    299.78236   -968.94461    6653.8791    12089.325     1206.048 
    1100    296.05003   -964.67017    6330.3703    11690.355    1405.6732 
    1200    300.13067   -964.54435    6201.9827     11649.27     1340.065 
    1300    300.50391   -967.97597    6253.9243    11705.753    1207.3262 
    1400    296.57741   -976.22116    6605.9649    11965.665    1281.7738 
    1500    302.95307    -982.2117    7014.0284    12503.944    1486.6581 
    1600    300.76828   -984.15931    6743.0173    12184.311    1375.1708 
    1700    298.91632   -983.93683    6309.7532    11711.705    1341.0712 
    1800    296.96112   -986.92791    6416.1688     11773.36    1430.6693 
    1900    297.88803   -994.06436    6520.0395    11889.896    1425.0539 
    2000    303.04821   -1001.9625    6499.4781    11971.676    1479.9859 
    2100    298.89439   -1011.2533    6444.9721    11819.139    1593.7724 
    2200    299.86033   -1022.1248    6356.2091     11740.14    1606.9344 
    2300    298.58551   -1037.9571    6406.8165    11747.681    1597.9655 
    2400    300.02266   -1057.1671     6464.778    11817.135    1552.9803 
    2500    298.52839   -1074.5686     6415.629    11718.661    1480.7752 
    2600    302.86935   -1094.1288    6316.5098     11692.72    1449.6751 
    2700    299.30993   -1115.3267    6338.1838    11617.155     1493.822 
    2800    304.44776   -1131.0576    6482.9526    11855.954    1617.3362 
    2900    297.34162    -1145.453    6219.3579    11426.152    1541.3698 
    3000    305.82493   -1144.4141    6124.4958    11513.562    1637.0741 
    3100     299.1996   -1150.3615    6193.8143    11435.393     1617.363 
    3200    302.95549   -1155.7107    6290.9617     11607.43    1706.0766 
    3300    299.82585   -1163.2818    6131.4754    11373.513    1656.8674 
    3400    302.89819   -1159.3137    6201.0492    11512.691     1628.992 
    3500    295.12673   -1158.4769    6452.1897    11598.643    1620.6821 
    3600    304.22408   -1168.8402    6500.0465    11830.487    1634.4509 
    3700    296.81868   -1179.2559     6372.148    11533.968    1641.7659 
    3800     302.9128   -1183.1466    6238.3629    11526.483    1676.3398 
    3900    296.01671   -1174.8967    6147.7644    11296.811    1678.3124 
    4000    303.16022   -1149.4764    6450.6448    11777.721    1819.8031 
    4100    297.94581   -1162.8886    6449.9884    11652.255    1781.6966 
    4200    295.01157   -1169.3166    6201.0184    11334.171    1713.3046 
    4300    296.60854   -1168.3614     6218.353    11386.578    1738.0414 
    4400      299.154   -1155.9911    6173.2449     11408.22    1690.2262 
    4500    305.82542   -1141.7743    6310.9786    11702.695    1721.6113 
    4600    296.84892   -1128.6228    6348.8321    11561.931    1639.0662 
    4700    302.34104   -1108.7813    6543.0792     11893.35     1700.822 
    4800    298.73215   -1097.4322    6632.3162    11916.838    1735.1883 
    4900    296.82119   -1080.8712    6226.3551    11486.613    1705.5287 
    5000    303.83179   -1069.3315    6255.0502    11676.619     1796.604 
    5100    296.08767   -1059.7584    6379.3979    11645.098    1785.3899 
    5200    302.95005   -1054.1748    6413.4631    11831.351    1706.0309 
    5300    298.10581   -1047.4321    6546.0693     11867.21    1679.8258 
    5400    301.45478   -1050.7664    6585.0893    11974.442     1678.722 
    5500    304.23983   -1050.9987    6574.5262    12023.145    1782.1322 
    5600    291.94498   -1052.2799    6385.2232      11569.9    1726.6479 
    5700     300.9782   -1057.1058    6376.5194    11749.351    1796.8336 
    5800    301.15193   -1066.8464     6341.059    11707.862    1793.2146 
    5900    294.77607   -1079.6709    6428.7451    11646.513    1727.0861 
    6000    302.25954   -1083.3351    6542.5235      11916.5    1773.7906 
    6100    295.60816   -1097.1607    6394.2297    11612.284    1744.3157 
    6200    300.95084   -1104.2674    6379.4311    11704.517     1746.089 
    6300      299.426   -1102.2702    6386.5679    11681.075    1812.2095 
    6400    296.73044   -1103.7493     6252.812    11488.253    1738.4954 
    6500    300.78296   -1092.8488    6306.1776    11639.095    1787.5761 
    6600    296.88884   -1083.3253    6348.5295    11607.779    1840.2468 
    6700    300.94412    -1070.188    6449.6672    11808.689     1896.658 
    6800    300.86933   -1072.7639    6362.8725     11717.72    1888.1248 
    6900    297.99401   -1082.2388    6215.3905    11499.337    1824.1014 
    7000    300.66553   -1105.3319    6246.0645     11563.99     1852.881 
    7100     301.1401   -1109.3529    6430.5549    11754.598    1904.7607 
    7200    298.60951    -1121.511    6324.3902    11582.213     1852.944 
    7300    302.49291   -1123.6443     6362.676    11701.329    1841.8213 
    7400    291.82165   -1118.5086    6405.1389    11520.952    1765.3597 
    7500    300.93026   -1114.3827    6358.2909    11672.821    1786.3376 
    7600    297.77982   -1110.9558    6323.0044    11573.658    1732.4991 
    7700    300.62561   -1102.6092    6420.2816    11740.077    1801.5594 
    7800    300.74567   -1099.2567    6524.2106    11849.924    1814.3805 
    7900    298.99806   -1098.3331    6448.3716    11737.673    1746.4635 
    8000    299.40515   -1093.2312    6427.6704    11730.771     1771.799 
    8100    298.31813   -1092.8794    6350.9074    11631.137    1730.1664 
    8200    304.89823   -1094.7065    6433.8597    11852.836    1832.4553 
    8300    303.90577   -1100.2975    6447.7663    11839.949     1784.388 
    8400     302.8285   -1102.3772    6537.3278    11904.417    1820.5723 
    8500     299.2595   -1111.7173     6492.823    11774.326    1760.2024 
    8600    298.56306   -1118.6285     6451.733    11711.446    1798.1309 
    8700    302.48797    -1123.665    6233.7118    11572.238    1805.3026 
    8800    299.48802   -1128.2492    6314.0164    11583.869    1867.5812 
    8900    300.53878   -1136.5915    6402.7555    11686.714     1875.288 
    9000    301.96379    -1143.668    6404.7952     11712.12    1894.0999 
    9100    300.20026   -1142.1884    6311.7473    11582.877    1865.1757 
    9200    298.19339   -1169.6462    6214.2321     11415.03    1808.6627 
    9300    304.39821   -1158.9029    6310.8728    11654.971    1794.4121 
    9400    300.21763   -1160.1975    6408.8761    11662.368    1800.3607 
    9500    297.50132   -1162.4774    6351.1296    11544.312    1761.1848 
    9600    300.78088   -1154.4777    6336.2389    11607.483    1754.9194 
    9700    303.03075   -1149.6979    6332.2418    11656.331     1831.312 
    9800    299.59525   -1138.4221    6335.0024    11596.973    1882.8099 
    9900    299.97916   -1153.6912    6206.4309    11461.334    1843.7706 
   10000     300.3398   -1162.2533    6349.3525    11603.398    1894.6005 
   10100    306.93649   -1163.5692    6280.7055    11674.363    1873.6523 
   10200    292.55463   -1156.5924    6239.1665    11332.555    1785.4211 
   10300    302.24255   -1152.9723    6396.5997    11700.576    1824.0718 
   10400    294.92276   -1146.5102    6360.0878     11514.15    1800.3189 
   10500    301.43776    -1148.051    6244.5701    11536.274    1804.2906 
   10600    301.87258   -1135.2754    6307.0212     11620.79     1865.693 
   10700    295.51525   -1129.5159     6401.709    11585.423    1865.4835 
   10800    303.99704   -1119.8741    6388.2871    11762.843    1793.8096 
   10900    298.51369   -1117.0539    6511.8721    11772.105    1831.3686 
   11000      301.826   -1111.8856    6386.2264     11722.39    1851.5938 
   11100    297.01808   -1108.4666    6353.2968    11590.166    1849.4734 
   11200    301.38039   -1110.6393    6432.5531    11760.443     1775.816 
   11300    300.80759   -1108.2514     6560.489     11878.53    1794.6577 
   11400     293.3393   -1109.8114    6407.5775     11564.51    1726.9994 
   11500    302.55886   -1110.1168    6401.5214     11755.11    1744.0493 
   11600    297.21832   -1111.0607    6421.3185    11659.871    1728.6109 
   11700    301.82479   -1111.8241    6523.8368    11860.036     1788.054 
   11800     300.0461   -1123.6161    6385.9462    11672.355     1702.774 
   11900    298.07122   -1125.9007    6457.1885    11699.122    1773.7972 
   12000     297.5495   -1127.1173    6476.2086     11705.78    1783.8859 
   12100    299.29025   -1132.4747    6413.4795    11674.882    1728.6131 
   12200    302.23535   -1136.9456    6408.3907     11728.24    1777.0029 
   12300    296.87783   -1139.7692    6368.4312    11571.001     1783.345 
   12400    298.40267    -1148.471     6344.443    11570.887     1767.166 
   12500    302.77554   -1148.1611    6462.9641    11783.138    1803.2855 
   12600    299.04514   -1151.7922    6337.5062    11574.355    1794.3914 
   12700    298.92227   -1151.0543    6400.4936    11635.455    1878.0454 
   12800    300.59589   -1151.9969    6267.2119    11536.985     1858.715 
   12900    303.10733   -1155.0024    6300.8873    11621.308    1935.2801 
   13000    297.89513     -1164.23    6365.4141    11565.256    1932.2646 
   13100    301.83395   -1159.2318    6304.1103    11593.098    1945.4861 
   13200     300.8528   -1152.8935    6360.7922    11635.157    1926.4845 
   13300    296.43639   -1147.2652    6379.5414    11565.185    1921.1789 
   13400    305.46017   -1150.8462    6285.4134    11660.255    1916.3721 
   13500    297.37419   -1145.2688    6238.8426    11446.517    1894.5783 
   13600    302.43087   -1145.3624    6431.3952    11747.004    1955.2383 
   13700     298.6383   -1136.8961    6301.5512    11544.604    1833.5191 
   13800    298.02127   -1140.8999    6447.7604    11673.628    1932.5174 
   13900    305.93778   -1142.5959     6411.577    11804.872    1898.2146 
   14000    298.32349   -1137.8814    6323.6126    11558.955    1817.4929 
   14100    296.46294   -1133.5786     6298.533     11498.43    1788.9484 
   14200    299.41748   -1130.2026    6410.3948    11676.787    1812.1844 
   14300    299.59499    -1120.347    6517.5011    11797.541    1868.1628 
   14400    296.85671   -1114.3134    6353.7673    11581.342    1760.7476 
   14500     301.1331   -1110.0174     6342.284    11665.513    1808.1398 
   14600    298.14652   -1104.5807    6486.5694    11751.431    1785.9395 
   14700    307.41757   -1097.0518    6550.7509    12021.204    1820.8276 
   14800    297.73681   -1092.4914    6549.1474    11817.346    1804.4089 
   14900    300.81136   -1087.7957    6456.1767    11794.754    1759.4098 
   15000    300.01378   -1088.8769    6488.6859    11809.143    1799.2157 
   15100    300.77111   -1087.1492    6538.7487    11877.113    1763.4528 
   15200    297.89346   -1086.7242     6563.367     11840.68    1778.2419 
   15300    304.82734   -1090.9359    6540.0445    11961.277    1806.4885 
   15400     297.7455   -1097.5643    6378.1688     11641.48    1685.6732 
   15500    299.85938   -1101.9961    6528.1549    11832.194    1746.7088 
   15600    303.30887   -1110.4067    6444.6182     11813.94    1730.2491 
   15700    297.40728   -1116.6742    6382.7643     11619.74    1704.2097 
   15800    296.59932   -1129.3938    6513.9598    11720.955    1821.0582 
   15900    302.68058   -1133.6655    6423.2149    11755.855    1871.3265 
   16000    299.52466    -1145.161     6335.999    11589.723    1855.1721 
   16100    300.73607   -1146.9826    6402.0192    11679.801    1924.1144 
   16200    298.31596   -1152.7356    6366.7447    11587.072    1873.8756 
   16300    302.96621   -1157.7097    6282.8146    11597.513    1883.5771 
   16400    298.49883   -1163.4736    6360.2272    11573.723    1880.4232 
   16500      305.373   -1163.2798    6388.9583    11749.504    1855.9068 
   16600    296.84122   -1171.8699    6527.7881    11697.475    1902.4864 
   16700    297.83381    -1170.119    6409.4277    11602.071    1866.8963 
   16800    299.61164   -1171.3908    6289.1393    11518.491    1860.8644 
   16900    301.56002   -1161.2592    6340.9408    11622.049    1920.6167 
   17000    299.87857   -1164.8344    6514.8009    11756.412    2016.6277 
   17100    298.21961   -1162.8479    6389.1541    11597.311    1896.1361 
   17200    300.18486   -1170.6377    6308.1424    11550.494    1906.3683 
   17300     299.5542   -1179.1523    6337.2486    11557.612    1948.0101 
   17400    303.10504   -1172.1573    6468.7334     11771.95    1971.4476 
   17500    299.33806   -1170.5207    6296.9562    11521.334    1882.1901 
   17600     297.5653   -1160.5922    6444.5073    11640.941    2019.0729 
   17700     304.1169   -1154.1348    6335.3008    11678.157     1835.949 
   17800    297.82437   -1150.0572    6402.3393    11614.843    1845.2803 
   17900    300.33955   -1134.1587    6540.7927    11822.928    1877.8883 
   18000    297.81032   -1132.5989    6320.9021    11550.564    1761.4482 
   18100    302.69683   -1128.6029    6367.4641    11705.515    1839.6605 
   18200    297.75161   -1128.7141    6471.6068    11703.899    1873.8296 
   18300    304.15057   -1123.4744    6442.2686    11816.504    1855.4597 
   18400    297.00666   -1116.6887    6501.0303    11729.433    1773.2676 
   18500     300.5863   -1116.9522    6477.8775     11782.49    1796.3802 
   18600    298.97217   -1120.3609    6385.8822    11652.603    1823.1885 
   18700    297.00819   -1118.7994    6445.5938    11671.919    1863.7745 
   18800    302.38487    -1118.775    6436.1963     11777.41     1788.902 
   18900    298.05493   -1124.7898     6432.516    11675.213    1830.1388 
   19000    304.39189   -1125.7905     6488.243    11865.318    1866.9529 
   19100    302.51644    -1129.426    6386.3777    11719.751     1852.428 
   19200     297.9961   -1128.4045    6399.3558    11637.181     1889.133 
   19300    306.50671   -1126.5056     6378.378    11799.918    1889.1849 
   19400    298.23432   -1131.9739    6318.0101    11557.355    1837.4221 
   19500    299.71334   -1125.0267    6460.6257    11738.515    1950.8854 
   19600    303.49269   -1120.9944     6373.745    11736.406    1931.4529 
   19700     300.1207   -1126.3771    6425.1707    11710.412    1986.8555 
   19800    299.22611   -1121.2442      6379.83    11651.093    1971.3339 
   19900    295.66897   -1125.1212    6348.4388    11539.832    2006.8947 
   20000    292.28644   -1132.8314    6321.8389    11433.259    1922.6294 
   20100    302.59254   -1132.9589    6390.3504    11721.817    1939.9965 
   20200    299.88558   -1132.8912    6415.4036    11689.108    1895.4699 
   20300    299.16199   -1138.9702    6388.2189    11640.386    1911.5958 
   20400    296.21554   -1133.8292    6494.2178    11688.579    1923.8882 
   20500    299.58583   -1126.4548    6421.8759    11695.613    1879.8739 
   20600     298.8443   -1129.8445    6347.3669    11601.872    1791.9439 
   20700    299.13927   -1123.5604    6456.4418    11723.533    1860.3981 
   20800    306.00449   -1129.3883    6394.6472    11802.575    1847.6971 
   20900    302.42688   -1126.6821    6413.1846    11747.389    1923.7116 
   21000    302.89039    -1129.305    6424.4703    11765.954    1846.3011 
   21100    298.15257   -1131.1942    6378.0795    11616.457    1798.9575 
   21200    297.08971    -1130.523    6435.8508    11652.194    1830.5465 
   21300     303.7867   -1130.5022     6432.956    11792.391    1846.5106 
   21400    295.10336    -1134.809    6413.7049    11583.326    1820.6476 
   21500    299.75265   -1137.3603    6380.5802    11646.975    1827.0725 
   21600    298.79342   -1136.4342    6347.7627    11594.591    1872.5505 
   21700    300.99426   -1138.1108    6468.1108     11760.28    1948.9241 
   21800    303.52063    -1135.207    6426.9696    11776.015    1947.2704 
   21900    293.01814   -1132.5228    6403.7443    11531.104    1853.1975 
   22000    303.89025   -1126.7229    6447.4489    11812.875    1948.6836 
   22100    297.68021    -1130.695    6331.7178    11560.504     1886.434 
   22200    300.57742   -1136.8519     6234.105    11518.629    1791.2189 
   22300    297.99897   -1140.6701     6486.688    11712.309    1879.3437 
   22400    303.86109   -1141.9869    6547.2524    11896.791    1897.1486 
   22500    301.31481   -1139.8075    6448.6991     11746.02    1838.1597 
   22600    293.45588   -1135.0663    6557.5784    11691.747     1932.439 
   22700    304.37936      -1139.9    6218.8751    11581.573    1902.4487 
   22800    300.36694   -1136.2023    6360.4407    11641.117    1939.5507 
   22900    297.12607   -1131.2084    6491.0069    11707.441    1895.0611 
   23000    303.14993   -1132.4578    6432.4082    11776.283    1878.5033 
   23100     301.3973   -1133.8974    6524.5448    11829.538    1943.6673 
   23200    300.44576   -1130.9606    6426.6901    11714.292     1888.816 
   23300    295.57746   -1130.1345    6385.6764    11570.101    1903.4835 
   23400    301.68976   -1130.5465    6380.8461    11695.438     1855.896 
   23500    294.20878   -1132.3504    6481.9859    11634.955    1882.8356 
   23600    303.54842   -1136.3972    6427.6549    11776.104    1859.4334 
   23700    300.88276   -1138.6438    6547.6499    11836.905    1929.0304 
   23800    296.82443   -1142.3894    6432.8967    11631.706    1893.5485 
   23900    302.67282   -1139.1402    6389.0391    11716.039    1931.2599 
   24000     296.5116   -1142.6888    6435.8468    11627.673    1882.1381 
   24100    301.19565   -1142.8655    6462.1869    11753.904    1872.0239 
   24200    301.39675   -1150.9515    6408.2078    11696.136    1883.3352 
   24300    300.92185   -1151.7189    6375.9879    11653.003    1881.8089 
   24400     298.5555   -1156.7663    6294.7275    11516.141    1817.0683 
   24500     296.0309   -1162.7298    6345.4491    11506.965    1773.7611 
   24600    300.26501   -1160.4309    6448.8337    11703.104    1768.6765 
   24700    300.92221   -1150.4394    6345.3933    11623.695    1741.1737 
   24800    296.89286    -1159.226    6412.4617    11595.896    1887.0048 
   24900    296.19894   -1151.6603    6377.3566    11553.532    1875.2927 
   25000    303.13779   -1157.2225    6327.3688     11646.22    1838.9552 
   25100    297.56404   -1164.2936    6294.7297    11487.435    1797.6894 
   25200    297.17604   -1163.0419    6403.3737    11589.042      1833.08 
   25300    298.69647   -1163.1493    6479.3223    11697.365    1885.5714 
   25400    300.98924   -1164.3379    6350.1787    11616.014    1835.6775 
   25500    299.42352   -1156.8908    6508.3339    11748.167    1908.9166 
   25600    305.16274   -1159.5802    6358.9569     11718.71    1840.6896 
   25700     296.6278   -1152.9717    6346.6293    11530.655    1886.5309 
   25800    300.86185   -1146.1902    6445.2205    11726.482    1954.1701 
   25900    297.39846    -1140.727    6411.0457     11623.78    1942.3775 
   26000    296.36912   -1145.0682    6376.5667     11562.97    1919.1527 
   26100    299.42078   -1132.8224    6360.2204    11624.064    1848.9935 
   26200    303.67064   -1132.1713    6478.0985    11833.384    1914.6223 
   26300    293.95145   -1133.0565    6495.6387    11642.404    1894.6213 
   26400    302.48372   -1133.8799    6474.0973    11802.318    1914.0262 
   26500    296.25952   -1126.1634    6346.6975    11549.664    1798.1315 
   26600    299.12029   -1127.9547    6431.8666    11694.158    1901.0392 
   26700    300.73889   -1127.4889    6460.2245    11757.561    1884.3075 
   26800    305.99163   -1126.3308    6381.5208    11792.232     1842.061 
   26900    298.19147   -1124.4404    6454.2631    11700.226    1882.5402 
   27000    298.66918   -1119.5883    6459.8361    11720.857    1857.0728 
   27100    294.67967   -1120.0433    6447.1988    11622.535    1788.3204 
   27200    306.54819   -1121.3364    6414.7574    11842.353    1817.6818 
   27300    299.54104    -1118.022    6471.6899    11752.903    1843.9924 
   27400    304.73851   -1118.1963    6484.5295    11876.604    1850.0911 
   27500      301.391   -1115.1186    6436.7169    11760.354    1847.3533 
   27600    300.01782    -1111.144    6342.5327    11640.809    1818.7945 
   27700    303.29929   -1115.1797    6482.3344    11846.679    1876.5219 
   27800    297.40028   -1114.2265    6504.7655     11744.04    1787.7677 
   27900    295.98517    -1113.982    6432.2144    11641.502    1828.6247 
   28000     302.6331   -1114.2854    6421.0543    11772.061    1913.4205 
   28100    303.01201   -1111.4109    6383.8835    11745.859    1867.3476 
   28200    298.76145   -1114.0055    6490.5487    11759.123    1864.4209 
   28300    298.55883   -1113.3035    6440.0743    11705.022    1850.4251 
   28400    296.12017   -1114.7116    6418.0473    11629.489    1912.8445 
   28500    300.89759   -1120.0802    6378.1493    11686.284    1920.1226 
   28600    302.71305   -1119.2309    6542.5763    11890.345    1921.4263 
   28700    300.67626   -1117.2642    6556.9447    11863.168    1914.9042 
   28800    301.14486    -1121.674    6305.3898    11617.214    1767.9616 
   28900    302.81618   -1116.2708    6456.8958    11809.828    1906.9725 
   29000    300.38984   -1118.3248    6396.3016    11695.345    1867.7666 
   29100    301.80222   -1125.6543    6396.7603    11718.647    1923.8802 
   29200    303.83664   -1124.5603       6506.7    11873.143    1949.9509 
   29300    299.89778   -1128.3374    6412.1928    11690.711    1804.7472 
   29400    292.79912   -1128.8179    6410.6436     11537.03    1775.7123 
   29500    301.72688   -1133.6309    6493.0623    11805.363    1849.1027 
   29600    298.12086   -1135.0555    6455.9471    11689.786    1762.4386 
   29700    300.92589   -1136.6252    6522.4296    11814.624    1857.2585 
   29800    296.86223   -1143.1506    6252.9039    11451.759    1784.2227 
   29900    299.69225    -1140.429     6446.624     11708.66    1897.7797 
   30000    299.28653   -1141.4275    6489.6408    11742.011    1900.6526 
   30100     303.1908    -1143.959    6370.1648    11703.412     1836.337 
   30200    295.48624   -1143.0974    6416.7281    11586.241    1860.1773 
   30300    300.79005   -1147.0651     6320.446    11599.299    1892.5028 
   30400    303.40252   -1153.6774     6398.444    11726.496    1901.9082 
   30500     298.9108   -1157.5305     6379.421    11607.661    1847.0041 
   30600    299.44071   -1158.4591    6357.1693    11595.802    1810.8966 
   30700    305.89164    -1161.252    6370.3248    11743.978    1883.0471 
   30800    299.97661   -1150.9746     6390.744    11648.309     1844.361 
   30900    298.48303   -1155.1574     6390.769    11612.244    1901.0876 
   31000    299.05396   -1147.1736    6405.2771    11646.933    1953.3848 
   31100    301.52814   -1147.9861    6412.4308    11706.131     1888.198 
   31200    299.40251    -1134.973    6366.2687    11627.571    1868.3758 
   31300    299.35744   -1145.3623    6378.3497      11628.3    1941.0176 
   31400    301.84416    -1145.964      6346.34    11648.813    1871.8053 
   31500    297.95035   -1142.6453    6488.5645    11711.171    1930.9115 
   31600    299.23198   -1148.8204    6427.0028    11670.815    1914.4455 
   31700     302.3363   -1142.8401    6384.7714    11700.883    1834.2376 
   31800     297.4715   -1146.2579    6418.4853     11627.25    1843.9921 
   31900    300.73721   -1132.6946    6531.1059      11823.2      1902.74 
   32000    297.56344   -1135.5905    6420.3591    11641.755     1894.478 
   32100    300.89162   -1132.9898    6383.9812    11679.079    1843.4992 
   32200    295.95993   -1128.8488    6443.7353    11637.616    1847.9417 
   32300    303.18499   -1124.6083    6445.6234    11798.097    1904.0688 
   32400    295.68643   -1125.1877    6392.0951    11583.794    1856.0736 
   32500    301.63919   -1124.9865    6450.7778     11769.85    1861.7047 
   32600    301.61709   -1126.0693    6538.6943    11856.211    1916.5884 
   32700    302.93686   -1124.9101    6415.5622    11762.433    1833.8402 
   32800     299.4195   -1126.8119    6462.2537     11732.08    1807.3339 
   32900    298.93835   -1131.6151    6470.7523    11725.496    1859.3061 
   33000    302.44595   -1136.3074     6456.275    11781.261    1929.7266 
   33100    297.33162    -1135.851     6460.742    11676.925    1880.9781 
   33200     303.2405   -1143.8993    6428.5643    11762.933    1910.3582 
   33300    298.41595   -1149.5365    6365.9585    11591.621     1845.613 
   33400    300.57206   -1154.2901    6458.7866    11725.757    1854.1313 
   33500    299.24392   -1155.2977    6439.7324    11677.322    1830.3826 
   33600     304.8726   -1152.4809    6341.4717    11702.126    1863.7412 
   33700    299.72171   -1148.3333    6296.0777    11550.839    1741.8079 
   33800     296.2028   -1148.7409    6408.7478    11587.925    1777.0616 
   33900    300.64652   -1149.5527    6439.5366    11712.836    1836.5909 
   34000    297.26078   -1151.3775    6358.2578    11557.401    1828.1285 
   34100    300.91283   -1152.6891    6403.5667    11679.419    1841.6266 
   34200    301.53418   -1147.4795    6347.2109    11641.547      1875.09 
   34300    294.83332   -1162.9796    6334.8247    11470.507    1889.1316 
   34400    303.39606    -1158.437    6482.4457      11805.6    1896.8415 
   34500    297.28206   -1158.0532    6363.0035    11555.925    1830.7592 
   34600    304.13433   -1158.7143    6439.4971    11778.146    1876.1422 
   34700    295.50212   -1159.3619    6433.8856    11587.473    1840.7531 
   34800     295.6447     -1150.73    6352.3264    11517.592    1870.1253 
   34900    302.88782   -1152.7398    6327.6807    11645.674    1892.8069 
   35000     296.6167    -1147.041     6458.479    11648.199     1875.675 
   35100    300.68313   -1143.8883    6479.9051     11759.65    1832.5143 
   35200    297.81396   -1143.6531    6423.3847     11642.07    1837.7826 
   35300    300.04042   -1135.8031    6416.6294     11690.73    1899.1553 
   35400    298.89126   -1136.8618    6358.0334    11606.525    1834.8759 
   35500    295.44738   -1135.3993    6439.7039    11616.084    1816.3048 
   35600    303.37856   -1132.8573    6432.5141    11780.874    1837.5156 
   35700    298.78506   -1132.5831    6486.8915    11737.393    1858.5531 
   35800    299.54091   -1131.0904     6526.011    11794.152    1860.7112 
   35900    301.38864   -1136.4811    6418.9561    11721.181    1820.2893 
   36000    300.05318    -1130.405    6361.1168    11640.888    1706.9734 
   36100    302.28918   -1136.4784    6470.5598    11792.026    1692.8828 
   36200    298.55074   -1134.1827     6457.935    11701.831    1763.1665 
   36300    302.28283   -1134.2546    6480.0099    11803.564    1811.6835 
   36400    299.71797   -1132.8065    6451.1518     11721.36    1789.4071 
   36500    305.48874   -1132.8043    6367.0671    11760.561    1838.0771 
   36600    298.12246   -1138.3036    6467.4197    11698.045     1863.785 
   36700    301.25163   -1131.6443    6507.1542    11811.289    1886.9718 
   36800    299.44018   -1138.9561    6336.8869    11595.011    1828.7123 
   36900    295.60983   -1138.8607    6396.7976    11573.187    1850.7742 
   37000    300.35709   -1142.7093    6499.3463    11773.305     1858.779 
   37100    303.30031   -1137.7711    6388.6864    11730.461     1803.285 
   37200    302.50656    -1138.117    6402.0386     11726.51    1815.5651 
   37300    298.66837   -1140.0454    6464.1955    11704.742    1832.8447 
   37400    296.87647   -1143.7939    6420.5416    11619.058    1831.3947 
   37500    297.90192   -1146.6919    6348.4284    11565.954    1785.7556 
   37600    302.64079   -1150.1566    6410.3129    11725.612    1869.0468 
   37700    295.37099   -1153.1191    6387.7918    11544.821    1826.3962 
   37800    299.75098   -1152.7873    6458.5232    11709.456    1859.6485 
   37900    299.44076   -1151.1128    6296.0187    11541.998    1837.8067 
   38000    299.40178   -1143.7952    6401.4152     11653.88    1932.8605 
   38100    298.23469   -1144.2667    6413.8352    11640.895    1861.4598 
   38200    301.40311   -1142.8514    6424.1393    11720.303    1824.0157 
   38300    302.29058   -1153.3171    6366.6495    11671.307    1828.8749 
   38400    299.49481   -1153.1365     6318.726    11563.837    1747.5131 
   38500    299.27706   -1152.1559    6451.3802    11692.819    1783.5005 
   38600    297.07591   -1155.5769    6410.3733    11601.367    1835.4213 
   38700    298.94361   -1151.7229    6295.3325    11530.081    1805.0431 
   38800    301.53336   -1141.5623    6411.3291    11711.564    1887.8841 
   38900    300.17681   -1143.5899     6435.044    11704.271    1929.7263 
   39000    304.24426   -1143.8552    6343.5431      11699.4    1845.6701 
   39100    299.15546   -1137.7176    6467.1914    11720.471    1846.4664 
   39200    299.60569    -1141.865    6420.2912    11679.042    1824.4403 
   39300    300.28797   -1142.7399    6494.6081     11767.06    1782.7727 
   39400    303.30417   -1141.7031    6465.7747      11803.7    1823.4688 
   39500    301.52781   -1141.4265    6446.3841    11746.637    1891.8448 
   39600    296.66156   -1140.9841    6352.4059    11549.141    1797.5969 
   39700    293.57779   -1137.1344    6487.7573    11622.462    1753.3643 
   39800    305.98066   -1134.6393    6532.6507    11934.819    1816.5541 
   39900    299.61501   -1129.2334    6481.1262    11752.708    1782.3205 
   40000     301.1291   -1133.7993    6401.2234    11700.585    1769.3994 
   40100     300.8489   -1129.7714    6449.7254    11747.129    1807.7654 
   40200    295.49896   -1130.9545    6401.6406    11583.568    1785.6233 
   40300    304.28253   -1130.9964    6508.3621    11877.895    1838.7057 
   40400    300.79389   -1134.4652    6464.1424    11755.677    1825.5866 
   40500    294.27574   -1139.4827     6435.416    11582.683    1910.8566 
   40600    296.56553   -1142.2773    6414.4922    11607.882    1846.3579 
   40700    303.15928   -1141.2782    6368.6626    11703.917     1829.308 
   40800    298.05305   -1151.4977    6424.4425    11640.391    1886.4265 
   40900    304.15855   -1152.8039    6392.8954    11737.972    1868.3657 
   41000     299.2365   -1148.7302    6412.6389    11656.637    1946.6416 
   41100    296.21184   -1155.3217    6396.5632    11569.353    2016.1225 
   41200    303.08022   -1156.2752    6255.2733    11573.842     1886.131 
   41300    299.43066   -1158.2519    6485.3736    11723.998    1987.7356 
   41400    302.33659   -1154.9646    6440.5958    11744.588     1924.586 
   41500    294.32653   -1151.6338    6371.3264    11507.527    1907.2142 
   41600    299.70386   -1155.3861     6323.496    11570.823    1892.4784 
   41700     304.2498   -1156.0028    6421.0331    11764.861    1943.0635 
   41800      296.033   -1157.0405    6342.6105    11509.861    1926.5255 
   41900      302.612    -1162.721    6403.8911    11706.011    1967.8761 
   42000    301.15433   -1160.3844    6443.9925    11717.308    1926.5447 
   42100    297.44731   -1155.7667     6371.773    11570.512    1925.3351 
   42200     300.1277   -1158.6426    6307.3353     11560.46    1915.8291 
   42300    296.85135   -1157.6015    6335.3739    11519.546    1854.6864 
   42400    305.41769   -1157.5298    6515.5057    11882.756    1934.1721 
   42500    297.51458   -1153.3141    6455.4906    11658.119    1874.0911 
   42600    299.13123   -1146.2174    6460.5562    11704.819    1880.9014 
   42700    299.84895   -1148.6052     6334.593    11591.801    1831.1209 
   42800    297.81781   -1145.9912     6467.255    11683.684    1913.8424 
   42900    302.43004   -1145.1397    6437.2054     11753.02    1881.3265 
   43000    299.15808   -1142.3785    6403.4864    11652.161    1792.1675 
   43100    298.55781    -1139.419    6604.0052    11842.816    1867.0317 
   43200    300.29514   -1134.7752    6538.3629    11818.933    1794.6363 
   43300    302.10105   -1135.3123    6389.3071     11707.92    1839.8916 
   43400    298.89509   -1132.9904    6364.1645    11616.609    1852.7823 
   43500    302.17096   -1137.5515     6442.692    11760.559     1890.264 
   43600    297.72838   -1130.9693     6497.621    11727.162    1872.0256 
   43700    299.76104   -1138.4343     6482.449    11747.949    1889.6793 
   43800    297.06738   -1139.3166    6371.3596    11578.432    1855.4208 
   43900    300.98782   -1140.1894    6391.8732    11681.827    1871.1054 
   44000    298.52773    -1138.242    6447.8543    11687.199     1784.907 
   44100    298.06135   -1142.1412    6440.3284    11665.811    1791.2522 
   44200    297.88384   -1137.8999    6437.5402    11663.472    1842.0899 
   44300    302.10124   -1145.2021    6312.5648    11621.292    1772.4207 
   44400     299.4864   -1138.6701    6502.9548    11762.352    1901.8182 
   44500    300.19454   -1142.4756    6444.0623    11714.783    1922.0331 
   44600    297.67439   -1140.9293    6364.8589    11583.286    1855.0215 
   44700    301.19109   -1148.0934    6335.6801    11622.072    1888.7942 
   44800    298.20162   -1153.8945    6364.0225    11580.748     1859.671 
   44900    302.70594   -1149.4764    6446.9721    11764.344    1802.0007 
   45000    297.63001   -1154.3021    6437.1868    11641.293    1811.0832 
   45100    297.35438   -1159.1857    6399.6674    11593.002    1901.4064 
   45200    302.98006   -1158.2286    6359.3204    11673.796     1880.322 
   45300    302.26003   -1148.7966    6355.3499    11663.875    1831.3903 
   45400    298.51636   -1154.4231    6439.0082    11661.929    1954.7837 
   45500    294.69364   -1153.0867    6328.1291     11470.72    1920.1369 
   45600    304.30119   -1154.7789     6320.251      11666.4    1887.0804 
   45700    297.11905   -1148.3978    6473.2292    11672.324    1992.3545 
   45800    298.12567   -1152.7393    6357.0305    11573.289    1900.3943 
   45900    297.52788   -1156.2223    6340.9751    11540.979     1909.211 
   46000    304.52946     -1154.68    6332.1815    11683.306    1901.4436 
   46100    298.34654   -1152.3998    6494.6578    11715.974    1962.8303 
   46200    301.76905   -1147.6954    6397.5753    11696.713     1830.303 
   46300     299.0602   -1148.8569    6418.3206    11658.426    1765.0599 
   46400    300.35127   -1141.0293    6541.2302    11816.745    1927.8767 
   46500    303.06106   -1142.0459    6376.0559    11708.445    1869.9251 
   46600    296.11871   -1144.1838     6371.634    11553.572    1827.4199 
   46700    301.62699   -1139.5059     6417.497    11721.789    1839.6683 
   46800     301.7176    -1143.532    6547.4437    11849.645    1953.5403 
   46900    303.26252   -1140.4877    6392.7276    11730.978    1812.9004 
   47000    301.83028   -1141.9896    6424.9225    11731.074    1873.7694 
   47100    296.64332   -1139.7574    6464.6553    11662.227    1889.9877 
   47200    300.80763   -1136.4309    6415.1632    11705.026    1836.1077 
   47300    300.95936   -1134.8153    6477.4928    11772.213    1891.7107 
   47400    296.04699   -1136.1092    6422.6414    11611.122    1885.6345 
   47500    301.36554   -1140.4541    6455.1564    11752.915    1835.9658 
   47600    298.86446   -1141.3885    6344.2997    11587.692    1801.4125 
   47700    299.35728   -1142.5783    6381.9418    11634.672    1884.9518 
   47800    300.23029   -1140.9905    6520.6211     11793.59    1884.0634 
   47900    296.39412   -1141.8339    6456.5303    11646.702    1839.3926 
   48000    302.49831   -1145.6949    6301.8398    11618.557    1908.6214 
   48100    300.58972   -1151.5073    6409.5193     11679.65    1945.7879 
   48200    294.76248   -1144.6748    6408.8503    11561.324    1903.5263 
   48300    302.44359   -1149.0001    6369.1821    11681.425    1882.6082 
   48400    297.59322   -1158.5738    6452.7839    11651.833    1918.8129 
   48500    302.46316   -1154.3494    6435.2898    11742.602     1928.052 
   48600    302.89974   -1150.8669    6383.9922    11704.114    1904.8426 
   48700    300.28168   -1157.7422    6449.1134    11706.429    1949.7307 
   48800    301.13939   -1157.6374    6404.9464     11680.69    1898.6172 
   48900    301.71989   -1153.1797    6421.0072     11713.61    1879.9527 
   49000    300.95929   -1153.8104    6475.6194    11751.342    1942.3691 
   49100    295.29561   -1156.7879    6401.1949    11552.945    1895.2417 
   49200     303.5108   -1155.3644    6402.4631    11731.141    1915.2051 
   49300    293.73185    -1159.267    6475.6215    11591.485    1893.6428 
   49400    301.27566   -1158.6676    6416.3627    11693.987      1949.98 
   49500    296.26857   -1160.3711    6302.2692    11471.222    1879.2218 
   49600    300.88136   -1155.0746    6399.3081    11672.102    1844.1653 
   49700    297.87894   -1149.7678    6434.7313     11648.69    1840.4784 
   49800    296.82666   -1149.4631    6471.7103    11663.494    1857.8599 
   49900    305.08934   -1142.8119    6591.3209    11966.275    1887.8561 
   50000    294.92629   -1150.0305    6402.3901    11553.007    1835.1587 
   50100    303.02294   -1145.0572    6295.8524    11624.415    1878.9593 
   50200    295.81559   -1141.1868    6425.1962    11603.655    1851.4748 
   50300    303.50921   -1139.2949    6462.1395    11806.853    1891.4104 
   50400    294.87398    -1141.515    6442.7422    11600.757    1878.2759 
   50500    299.89261   -1138.0107    6461.0132    11729.748    1879.5062 
   50600    291.16645   -1138.1645    6420.5201     11502.68    1800.1534 
   50700    301.33401   -1142.9655    6422.4058    11716.979    1843.7012 
   50800    299.91428     -1142.55    6417.5904    11682.249    1850.1147 
   50900    300.88276   -1140.9043    6515.3826    11802.377    1870.3989 
   51000    301.28727    -1139.384    6469.0471    11766.203    1898.9672 
   51100    299.81784   -1145.2439    6334.8803    11594.785    1931.9741 
   51200    300.15692   -1137.3973    6433.8855     11708.88     1942.107 
   51300     301.0226   -1143.1533    6466.0219    11753.755     1998.095 
   51400    302.69144   -1147.0901    6403.1068    11722.555    1963.5076 
   51500    303.09951    -1148.843     6341.028    11667.441    1930.4735 
   51600    300.72182   -1152.8624    6472.8884    11744.486    1989.2062 
   51700     300.4509   -1152.1673    6304.1725    11570.678    1899.6152 
   51800    299.60123   -1153.5136     6479.049    11726.056    1966.3141 
   51900    295.76054   -1153.3095     6375.693    11540.854    1830.5332 
   52000    298.35095   -1156.5233    6433.0846    11650.372    1911.0805 
   52100    299.36056   -1160.1277    6391.5888     11626.84     1876.981 
   52200    301.14427   -1156.3201    6381.9983    11659.164    1872.1276 
   52300    300.97059   -1157.2225    6426.8086    11699.361    1848.8597 
   52400    301.24127   -1163.6853    6467.1831    11739.055     1878.472 
   52500    298.44405   -1157.2291    6374.0338    11592.604    1900.0119 
   52600    303.80428   -1156.8424    6310.2536    11643.724    1904.3125 
   52700    300.97669   -1155.2287    6529.2114    11803.888    1964.6992 
   52800    297.07274   -1146.4876    6392.8532    11592.869     1863.982 
   52900    300.34682   -1149.4781    6417.0334    11684.004    1900.8559 
   53000    301.30044   -1149.0243    6459.3216    11747.119    1937.7048 
   53100    297.67282   -1153.7821    6351.9264    11557.467    1890.7188 
   53200    296.91918   -1148.3878    6497.0563    11691.891    1974.6005 
   53300    304.72359   -1147.0686    6306.2645    11669.148    1927.9816 
   53400     296.1018   -1144.5874    6433.9867     11615.16    1945.4182 
   53500    303.17648   -1142.1701    6382.1484    11716.879    1881.3477 
   53600    297.46164   -1137.6808    6456.7214    11673.852    1931.3077 
   53700     303.3416   -1143.3191    6400.8813     11737.99    1879.8677 
   53800    293.27308   -1138.4871    6495.4208    11622.263    1892.1937 
   53900    299.73734   -1136.0257    6428.5057    11695.908    1926.7621 
   54000     301.8935   -1132.9862     6367.368    11683.873    1874.5195 
   54100    301.10939    -1133.588    6497.2623    11796.414    1931.2433 
   54200    299.01865   -1139.8056    6448.7204    11696.989    1964.9583 
   54300    298.96922   -1139.1165    6474.4844    11722.386    1932.6419 
   54400    304.06717    -1138.069    6485.1603     11843.02    1868.0222 
   54500    298.92235   -1139.2103    6389.1054    11635.913    1849.4527 
   54600    296.29197   -1141.0351    6514.4467    11703.235    1911.2194 
   54700    303.07082   -1139.4434    6446.9733    11782.173    1881.5562 
   54800    297.65892   -1144.0302    6479.0184    11694.014    1898.3122 
   54900    304.45576    -1151.439    6356.6948    11709.486    1890.2827 
   55000    298.46166    -1151.041    6383.2172    11608.352    1980.9496 
   55100    299.51575   -1148.9308    6359.4869    11609.251    1926.0589 
   55200     298.8977   -1152.4061    6423.9961    11657.081    1882.6656 
   55300    300.23215   -1157.3396    6438.0868    11694.746     1908.417 
   55400    302.53192    -1156.185    6369.4704    11676.416    1927.9261 
   55500    303.78042   -1159.8406    6375.2586     11705.22    1998.0626 
   55600    299.51828   -1162.8898    6342.1464    11578.005    1930.4549 
   55700    300.84136   -1159.6235    6486.5744    11753.965    1976.7717 
   55800    301.18723   -1161.3722    6447.2894     11720.32    1950.4237 
   55900    301.75498   -1164.5221    6369.1671    11651.177    1921.9754 
   56000    301.75086   -1164.5131    6422.9707    11704.902    1922.8299 
   56100    299.92823   -1160.9833    6384.1899    11630.713    1915.2275 
   56200    295.94837   -1158.1515    6404.8639    11569.195    1907.0929 
   56300    305.27068   -1159.3696    6450.8508    11813.121    1965.8213 
   56400    297.10024   -1150.2385    6423.9617    11620.814    1973.4555 
   56500    301.80731   -1155.4465    6411.2381    11703.442    1987.3045 
   56600    303.25031   -1157.7642    6405.4419    11726.155    1965.4769 
   56700    299.79262   -1156.4475    6368.1311    11616.293     1894.751 
   56800    305.31552    -1154.584    6405.8211    11773.835    1899.3828 
   56900    299.11348   -1144.3306    6472.0383    11717.808    1902.5221 
   57000    300.11837   -1143.5395     6492.683    11760.712    2012.2753 
   57100    299.38034   -1144.8284    6381.6307    11632.604    1965.7577 
   57200    294.04474   -1140.1479    6429.6941    11571.361    1923.5372 
   57300    304.17519   -1138.7131    6585.1785    11944.702    1964.5774 
   57400    294.16394   -1138.8331    6465.3887    11610.917    1926.9041 
   57500    302.93285   -1138.7483     6445.839    11778.786    1916.0757 
   57600    305.19865   -1136.2329    6445.6847    11829.553    1898.7645 
   57700    298.10127   -1135.5997    6434.9035     11667.78    1972.3508 
   57800    299.74933   -1140.5107    6396.5152    11659.689    1958.0475 
   57900    300.80514   -1136.3405    6510.6181    11800.518    1927.1261 
   58000    296.00463    -1141.193    6409.5472    11592.039     1914.111 
   58100    299.90338   -1143.0592    6343.3786    11607.295    1905.5336 
   58200    300.92216   -1144.9055    6474.6174    11758.452    1942.8293 
   58300    299.28804   -1153.6942    6453.1266    11693.262    1894.4671 
   58400    304.95483   -1144.3835    6468.4154    11838.924    1932.7484 
   58500    300.04135   -1149.7389    6512.4719    11772.656    1912.5841 
   58600    298.98899   -1154.0726    6400.6463    11634.015    1870.8327 
   58700    303.98397    -1153.141    6399.6471    11740.657    1887.4133 
   58800    301.44857   -1151.6598    6340.4145    11628.741     1855.533 
   58900    304.02938   -1156.9771     6315.633    11653.777    1922.8965 
   59000    299.49726   -1159.0078    6449.6251    11688.917    1985.2749 
   59100    299.17537    -1161.344    6439.2199    11669.299    1867.9491 
   59200    299.23563   -1162.3809      6448.23    11678.559    1888.4337 
   59300    301.45971   -1156.0778    6408.0131     11692.16    1946.2385 
   59400    295.00068   -1156.5679    6450.0884    11595.757    1971.5095 
   59500    300.54436   -1155.9002    6283.5878    11548.357    1922.6661 
   59600    299.09011   -1156.2081    6322.0118    11555.405    1974.6374 
   59700    298.83677   -1156.1613    6430.4939    11658.522    1943.3567 
   59800    302.12424   -1155.5115     6406.727    11705.636    1929.4706 
   59900    302.81308   -1156.4247    6354.5252    11667.237    1955.9492 
   60000    302.20316   -1155.6012    6423.6738    11724.179    1985.8594 
   60100    299.71161   -1155.5359    6337.3136    11584.656    1874.4525 
   60200     297.8377   -1151.1033    6471.3602    11683.102    1944.0784 
   60300    299.41451   -1149.7648    6398.9302    11645.697    1904.6513 
   60400    296.69054   -1141.9204    6415.9811    11612.399    1909.4564 
   60500     302.4313   -1145.8553    6320.4138    11635.539    1896.1095 
   60600    297.02933   -1144.6498    6442.9184    11643.845    1974.5513 
   60700    300.36066   -1138.1269    6444.8115    11723.429    1956.6174 
   60800    300.99442   -1144.4343    6399.3538    11685.203    1915.4113 
   60900    298.81364   -1143.5155    6615.0246    11855.204    1969.0482 
   61000    298.10132   -1137.7121    6449.9767    11680.742    1877.8109 
   61100    303.03692   -1144.6516    6460.7883    11790.056     1903.257 
   61200    300.01312   -1144.1678    6401.0924    11666.244    1848.2334 
   61300    299.59716   -1143.2021     6494.394    11751.625    1885.7312 
   61400    296.92521   -1146.8798    6481.5075    11677.979     1849.729 
   61500    301.64274   -1139.0873    6431.9064    11736.953    1846.0532 
   61600    295.53511   -1144.1426    6476.6629    11646.174    1867.8298 
   61700    300.96701   -1146.2253    6397.3417    11680.815    1848.1759 
   61800    301.87302   -1152.6115    6382.1045    11678.547    1850.4547 
   61900    293.01929    -1151.817    6487.4551    11595.546    1934.4995 
   62000    301.51438   -1151.4145    6356.2138    11646.191    1888.1325 
   62100    295.50177   -1157.3376    6429.4141    11585.018    1880.1256 
   62200    302.06678   -1160.3482    6336.6654     11629.51    1866.4798 
   62300    298.62514   -1158.7923    6389.5351    11610.411    1956.3499 
   62400    302.19889   -1163.3689    6414.6199    11707.267    1876.0173 
   62500    300.52482   -1161.8158    6482.6112    11741.047    1916.1058 
   62600    296.49658   -1159.3603    6389.8567    11564.691    1965.0201 
   62700     299.3241   -1159.8046    6272.1303    11506.926    1855.5867 
   62800    298.56153    -1155.441    6463.4927    11686.361    1926.1436 
   62900    298.62247   -1162.4742     6380.226    11597.363    1921.2649 
   63000    303.33576   -1152.7386    6447.8018    11775.366    1930.0032 
   63100    298.01747    -1155.533    6364.1525    11575.305    1894.2903 
   63200    294.03764   -1157.1856    6297.0056    11421.483    1914.5342 
   63300    302.51122   -1159.2651    6351.0734    11654.496    1951.5814 
   63400    303.99042   -1155.3394    6313.9718    11652.921    1845.7203 
   63500    297.59391   -1158.0292    6448.6633    11648.271    1870.6005 
   63600     304.6621   -1150.5813    6423.2463    11781.303    1885.4477 
   63700    296.01908   -1153.4858    6336.5404    11507.048     1869.162 
   63800    295.58059   -1151.0974    6424.9105    11588.439    1899.4535 
   63900    303.85953   -1151.2347    6467.7413    11807.999    1913.2846 
   64000    303.20271   -1141.1228    6504.3199    11840.658     1933.328 
   64100    298.79685   -1142.7811    6412.5322    11653.087    1818.8212 
   64200    299.21752   -1139.9302    6370.4066      11622.8    1824.6127 
   64300    300.54212   -1143.3675    6438.5787    11715.832    1913.9522 
   64400    299.99847   -1142.9227    6456.0058     11722.09    1886.6301 
   64500    300.03431   -1143.8859    6465.8876    11731.774     1854.729 
   64600    301.81234   -1148.4029    6499.6816    11799.036    1939.3956 
   64700    298.54872   -1146.0177    6439.6341    11671.652    1902.0263 
   64800    297.94511   -1146.6193    6421.6137    11640.135     1928.932 
   64900    295.64172   -1150.5158    6308.3734    11473.789    1914.2438 
   65000    298.49773   -1153.0521    6384.1107    11608.005    1947.8914 
   65100    303.70212   -1153.2774    6416.8579     11751.71    1881.0803 
   65200    305.04801   -1152.6306    6528.7429    11892.995    1987.1188 
   65300    298.60621   -1154.5515    6400.1487    11624.861    1866.3515 
   65400    297.98672   -1150.5546    6384.9292    11600.404     1913.797 
   65500    300.39503   -1151.3169    6430.6509    11696.813    1986.2329 
   65600    300.92138   -1152.3979    6366.1494    11642.475    1966.7305 
   65700    300.64699   -1157.8588    6417.4766    11682.479    1888.5062 
   65800    297.06088   -1156.3109    6451.3722    11641.311    1970.5212 
   65900    305.76988   -1164.5256    6384.9565    11752.735    1912.2989 
   66000     298.9572   -1156.5258    6429.9534    11660.189     1904.246 
   66100    302.34839   -1162.0805    6441.2956    11738.425    1982.9766 
   66200    300.83801   -1157.0758    6416.6096    11686.476    1990.1112 
   66300    301.29096   -1157.8716    6300.0587    11578.806    1974.0979 
   66400    298.01444   -1158.9655    6345.2898    11552.946    1929.7225 
   66500    296.14943   -1152.9234    6505.5797    11679.434    1972.6967 
   66600     303.2744   -1156.1556    6425.2762    11748.113    1928.9797 
   66700    297.86337   -1159.6741    6424.7921    11628.512    1989.6338 
   66800    300.23608   -1149.5114    6360.5093    11625.081    1952.3173 
   66900     304.0169   -1150.6774    6403.9905    11748.168     1949.955 
   67000    301.35915   -1149.4218    6372.9831    11661.637    1933.4181 
   67100     299.2894    -1139.181    6411.9685    11666.646    1997.3386 
   67200     301.8139   -1142.1666    6460.0473    11765.672    1925.9111 
   67300    303.63578   -1138.4632    6506.9228    11855.172     1934.454 
   67400     299.0865   -1144.7953    6457.3402    11702.069    1944.8703 
   67500     298.8061   -1143.8673    6480.5374    11720.204    1919.8186 
   67600    299.95531   -1143.6659    6401.6985    11666.117    1849.4245 
   67700    299.53088   -1141.0449    6454.9563    11712.929    1932.3196 
   67800    294.82253   -1138.7614    6444.6212    11604.291    1890.1289 
   67900    301.14918   -1141.9621     6479.601    11771.229    1890.5939 
   68000    303.13055   -1143.2786    6492.0824    11824.723    1948.2531 
   68100    299.03657   -1141.6841    6389.9302    11636.704    1923.5678 
   68200    303.99219    -1141.881    6445.0744     11797.52    1818.7936 
   68300    301.94324   -1143.6987    6547.2734    11854.129    1855.4939 
   68400    297.21618   -1148.0528    6428.7513    11630.266    1898.4584 
   68500    307.00078   -1148.1826    6383.9825    11794.401     1846.726 
   68600    299.35214   -1150.1034     6473.926    11719.022    1902.0535 
   68700    297.44131   -1152.2153     6363.551    11565.713    1907.6113 
   68800    303.96294   -1151.7438    6451.7131    11793.671    1943.4442 
   68900    296.29615   -1155.5213    6374.7121    11549.104    1896.4039 
   69000    296.02208   -1150.1191     6391.858    11565.796    1905.8168 
   69100    303.33832   -1155.5358    6362.0278     11686.85    1908.4694 
   69200    299.84089   -1153.5389    6478.5973    11730.699    1890.1984 
   69300    299.60959   -1151.5396    6464.5099    11713.669    1969.0803 
   69400     301.4373   -1154.9533    6289.3166    11574.109    1992.0649 
   69500    302.26622   -1159.9512    6265.7739    11563.277    1941.6331 
   69600    296.94756   -1155.0965    6478.3119    11667.044    1991.1126 
   69700    299.68371   -1151.7938    6418.2781    11668.767    1950.8198 
   69800    294.37173   -1155.9357     6404.828    11537.693    1942.7894 
   69900    298.75117   -1159.1644    6277.2619    11500.458    1887.3769 
   70000    300.62276   -1157.9269    6372.4661    11636.883    1941.7829 
   70100    295.72367    -1153.814    6468.9005    11632.769    1911.5914 
   70200    301.86352    -1151.668    6407.0014    11704.184    1821.6334 
   70300    301.08714   -1151.2598    6486.5827    11767.588    1919.6671 
   70400    300.04208   -1154.1083    6487.7566    11743.587    1924.9627 
   70500    297.15244    -1149.204    6293.1347    11492.137    1860.4431 
   70600    298.72355   -1144.9071     6393.289    11630.152    1905.2165 
   70700    298.89506   -1148.3747    6444.6973    11681.757    1988.8513 
   70800    302.65336   -1147.0286    6358.0175    11676.714    1929.7929 
   70900    297.78172   -1148.4882    6378.4511    11591.612    1880.6957 
   71000    301.93685   -1142.7676    6577.9119    11885.562    1968.3977 
   71100    298.11081    -1144.707    6458.2628    11682.236    1918.4186 
   71200    300.33354   -1143.7733    6403.6821    11676.074    1874.7024 
   71300    298.82569   -1142.2848    6540.9072    11782.575    1948.5937 
   71400    298.97918   -1140.9347    6393.6892    11639.986    1924.9835 
   71500    297.81562   -1148.7154    6347.1403    11560.799    1869.3143 
   71600    303.27936   -1148.8901     6447.048    11777.256    1901.6046 
   71700    301.00779   -1144.4563    6399.2823    11685.396    1849.1183 
   71800    295.95689   -1150.0679    6429.9663    11602.563    1875.5711 
   71900    298.91131   -1151.5447    6499.2277    11733.464    1855.4436 
   72000    299.20144   -1151.3245    6285.5969    11526.252    1868.7494 
   72100     300.1311   -1157.8691    6388.3242    11642.296    1966.2659 
   72200    295.21975   -1152.0661    6448.3863    11603.237    1887.2227 
   72300    302.14022   -1151.3811    6449.6178    11752.999    1879.5347 
   72400    294.78515    -1156.746    6467.0761    11607.962     1891.676 
   72500    300.16605   -1154.0008      6352.47    11611.056    1817.1198 
   72600    298.80068   -1157.3594    6348.4297    11574.488    1827.2126 
   72700    302.07952   -1157.0756     6348.698    11645.088    1949.5417 
   72800    298.09889    -1159.625    6390.8389    11599.639    1878.0019 
   72900    304.58883    -1154.607    6424.9912    11777.457    1911.0925 
   73000    299.20592   -1153.9027    6377.1576     11615.33    1933.0446 
   73100    298.58652    -1161.045    6424.7368    11642.535    2013.7284 
   73200    301.49445    -1159.107    6389.6344    11671.494    1913.7854 
   73300    302.05061   -1154.1638    6480.4049    11779.089      1947.54 
   73400    298.97249   -1155.1182    6410.5671    11642.537     1864.904 
   73500    296.40087   -1154.1024     6378.755    11556.802    1875.4518 
   73600    297.14449   -1145.9472    6428.1588    11630.248    1882.3603 
   73700    298.63845   -1151.4537    6381.7718     11610.27    1824.7237 
   73800    303.26082   -1151.0656    6521.0228    11848.659    1947.4758 
   73900    304.27436   -1150.1314    6499.0422    11849.266    1872.7391 
   74000     301.6022   -1146.7825     6520.402    11816.888    1891.7566 
   74100    296.00094   -1145.3077    6310.3764    11488.675    1829.8708 
   74200      296.214    -1145.488    6540.6577    11723.327    1908.7187 
   74300    300.48342   -1145.5503    6532.5299    11806.347    1892.6338 
   74400    298.87102   -1143.3912    6261.9781    11503.508    1756.1647 
   74500    302.39205    -1143.187    6349.6479    11666.603     1845.534 
   74600    301.08568    -1144.286    6563.5628     11851.51    1845.0606 
   74700    301.27371   -1144.4038    6530.5792    11822.426    1815.5101 
   74800    296.55991   -1145.7216    6302.5894    11492.415    1746.0603 
   74900    300.62641   -1144.5407    6508.8845    11786.766     1924.058 
   75000    301.08621   -1147.6554    6493.4875    11778.077    1860.2925 
   75100    301.47502   -1142.7716    6288.2542    11586.034    1722.3287 
   75200    299.61539   -1144.2069    6451.4229    11708.039    1825.6792 
   75300    303.71899   -1147.4216    6431.4789    11772.547    1794.6616 
   75400    296.10629   -1140.5647    6388.6955    11573.987    1877.5433 
   75500    302.75201   -1151.8554    6374.9091    11690.886    1886.3816 
   75600    294.85727   -1157.6389    6378.0138    11519.548    1838.4051 
   75700    306.20724   -1152.8507    6465.0474    11853.845      1845.87 
   75800    296.41381   -1155.9016    6341.2881    11517.813    1803.2861 
   75900    305.67075   -1151.8869    6377.7446    11756.044    1937.9016 
   76000    296.55217   -1162.9454    6476.0954    11648.532    1968.0484 
   76100    297.64463   -1161.2852    6385.4616    11582.897    1864.5698 
   76200    299.92952   -1159.6906    6493.4839    11741.327    1956.6679 
   76300    308.52631   -1167.3938    6458.9761    11882.773    1976.8066 
   76400    300.34896   -1149.5021     6373.504    11640.496    1927.0687 
   76500    298.51942   -1148.0224    6412.3048    11641.692    1933.7266 
   76600    300.41189   -1160.4561    6382.4762    11639.859    1947.2771 
   76700    299.43455   -1153.8588    6424.8286    11667.929    1923.6394 
   76800    295.18184   -1156.6648    6458.4421    11607.884    1888.6365 
   76900    304.59999   -1154.1169    6363.6769    11716.871    1930.0315 
   77000    296.72118   -1157.8914    6412.0813    11593.183    1920.1666 
   77100    303.07051   -1159.1412    6381.0202    11696.515    1918.6284 
   77200    297.16618   -1152.5981    6401.4672    11597.369    1916.7933 
   77300    300.43771   -1149.0938    6499.2954    11768.592    1933.6313 
   77400    300.44954   -1154.2219    6340.1041    11604.526    1854.4802 
   77500    297.91241   -1152.7682    6351.6152    11563.289    1857.1177 
   77600    298.06178   -1145.8699    6487.1789    11708.942    1888.8912 
   77700    301.36533   -1151.3941    6361.7977    11648.612    1867.7713 
   77800    298.03901   -1147.6946    6359.9571    11579.409    1869.9991 
   77900     303.8921   -1147.0957    6500.9685    11846.061    1848.1879 
   78000    298.91501   -1147.5611    6513.9693    11752.269    1845.7598 
   78100    304.27996    -1148.549    6334.1812    11686.107     1806.883 
   78200    299.10395   -1148.1978    6529.9373    11771.636    1913.0276 
   78300    296.17843   -1146.7125    6388.4415    11569.127    1876.5848 
   78400    299.53857   -1144.7449    6388.2204    11642.657    1883.9484 
   78500    301.04593   -1145.0224    6456.5824    11742.944     1912.855 
   78600     301.3927   -1146.2105    6388.5858    11681.168    1842.3581 
   78700    304.47431   -1148.3851    6493.9911    11850.232    1948.0455 
   78800    301.50757   -1152.3494    6494.0873    11782.984    1977.0447 
   78900    294.12431   -1154.3115    6362.9678    11492.171    1895.5128 
   79000    300.75056   -1157.8189    6490.1354    11757.391    1941.7541 
   79100    299.32452   -1152.6448     6393.241    11635.205    1918.5935 
   79200    298.54529   -1157.3057    6319.7955    11540.452    1866.2848 
   79300    300.63154   -1159.3861    6420.8484    11683.994    1827.3259 
   79400    297.63987   -1150.1943    6522.2128    11730.637    1874.0134 
   79500    301.60172   -1155.4199    6417.5824    11705.421    1907.4674 
   79600    301.96422   -1153.6455    6403.4892    11700.846    1923.0642 
   79700    296.93711   -1153.6818    6354.2841    11544.208    1913.8386 
   79800    300.80205    -1153.937    6382.7393    11654.976    1889.9413 
   79900     301.7627   -1153.8898    6384.0288    11676.836    1801.9538 
   80000    296.09839   -1157.1657     6432.338     11600.86     1857.429 
   80100    300.33889   -1154.6099    6296.4884    11558.158    1851.7917 
   80200    300.44818   -1156.7983    6394.3734    11656.189    1913.4921 
   80300    292.36237    -1152.305    6507.9961    11601.565    1870.9313 
   80400    300.65093   -1155.6643    6503.6406    11770.922    1940.1474 
   80500      298.766   -1154.4777    6413.5292    11641.729    1885.1106 
   80600     299.8712   -1153.5355    6399.2783    11652.031    1890.3437 
   80700    300.55481   -1146.2066     6378.998    11653.684    1886.7593 
   80800    302.05578   -1149.0323    6435.5668    11739.493    1857.7996 
   80900    302.67699   -1145.0106    6537.3398    11858.559    1894.4561 
   81000    297.97751   -1151.2113    6300.0734    11514.694    1815.8406 
   81100    293.36282   -1143.2461    6480.9675    11604.968      1880.55 
   81200     302.4021   -1151.9355    6435.6823    11744.104    1864.8849 
   81300    299.94646   -1144.7108    6353.8224    11617.007    1806.2206 
   81400    298.08399   -1145.4695    6466.2297    11688.867     1771.561 
   81500    300.98811   -1143.4751    6445.6224    11732.297    1796.1469 
   81600    304.96907   -1149.7382    6417.6629    11783.121    1875.3791 
   81700    301.00673   -1144.2894    6385.6663    11671.924    1852.5222 
   81800    299.70138    -1144.598     6539.443    11797.505    1902.3612 
   81900    299.08887   -1148.8866    6419.7229    11660.411    1833.2661 
   82000    293.48388    -1148.797    6355.6015    11476.637    1852.1548 
   82100    301.65524   -1152.6884    6408.4991    11700.212    1943.4075 
   82200    296.57574   -1153.2739    6514.0584     11696.67    1912.5339 
   82300    305.63388   -1152.6265    6382.7286    11759.501    1914.3251 
   82400    295.80472   -1156.3232    6350.9967    11514.088    1890.1802 
   82500    302.98767   -1158.7756     6406.803    11720.894    1907.4902 
   82600    297.77192   -1154.5408    6369.1295    11576.029    1910.0063 
   82700    302.04458   -1154.1515     6377.554    11676.121    1886.6001 
   82800    296.57624   -1150.1794    6411.8302    11597.547      1864.33 
   82900    299.53475   -1156.6396    6350.8018    11593.263    1869.8527 
   83000     297.9038   -1156.6855    6431.1017    11638.674    1942.8269 
   83100    300.48081   -1153.3076    6281.6881    11547.692    1839.3625 
   83200    298.36246   -1160.5166    6464.6353    11678.175    1924.7406 
   83300    301.74016   -1164.9855    6495.5755    11776.806    1941.4856 
   83400    303.09326   -1159.0504    6335.1874    11651.259    1947.1027 
   83500    300.71869   -1156.9126    6314.6545    11582.135    1901.2953 
   83600    297.07571   -1156.4514    6478.0093    11668.125    1867.9135 
   83700    302.99827   -1148.4936    6492.1131    11816.713    1861.3951 
   83800    296.46044   -1154.9566    6375.8851    11554.351    1865.6032 
   83900    302.99714   -1151.7045    6380.1526    11701.517    1891.9009 
   84000    299.34464   -1150.5414    6423.8239    11668.321    1876.3757 
   84100    298.45513   -1152.4682    6502.8197    11726.387     1975.663 
   84200    298.79754   -1151.4833     6493.725    11725.593    1968.9807 
   84300    302.94434    -1151.939    6408.4623    11728.464    1861.3288 
   84400    298.21626   -1148.2424    6452.4857    11675.176    1871.0384 
   84500    306.19023   -1149.7093    6452.8802    11844.455    1882.6479 
   84600    296.13559   -1150.9632    6357.6087    11533.128    1814.7369 
   84700    301.42232   -1145.6316     6475.558    11769.352    1896.7525 
   84800    300.82699   -1147.9979    6502.7735    11781.483    1943.8098 
   84900    299.23308   -1146.0321    6452.1794    11698.803    1978.0137 
   85000    299.23951   -1142.9871    6394.5119    11644.318     1916.098 
   85100     302.5595   -1145.4694    6394.1429    11712.393    1924.6939 
   85200    297.94689   -1146.3987    6437.1775    11655.957    1900.7569 
   85300    300.00192   -1146.3998    6468.3403    11731.021     1906.918 
   85400    301.53721   -1149.6735    6395.4455    11687.652    1883.4566 
   85500    299.21149   -1151.8655    6373.6658    11613.995    1847.0395 
   85600     295.7857   -1151.6866    6414.1366    11581.458    1867.5659 
   85700    301.82856   -1154.9359    6385.6678    11678.836    1854.3413 
   85800    296.21091     -1148.35    6357.8731    11537.615    1886.7674 
   85900    300.72736   -1148.9262    6462.0619    11737.714    1912.4115 
   86000    296.37285   -1148.2501    6322.2669    11505.568    1871.7933 
   86100    304.16454   -1156.0929    6332.1559    11674.072    1929.1612 
   86200    296.04887   -1150.3669    6464.2854    11638.548    1971.4264 
   86300    299.10898   -1154.7512    6488.2989    11723.552    1932.3932 
   86400    302.96551   -1158.5811     6372.679    11686.491    1899.0886 
   86500    300.66792   -1157.8475    6388.8633    11654.324    1991.6621 
   86600    297.27232   -1155.4234    6361.7206    11557.064    1964.0706 
   86700    297.71048   -1160.8883    6468.8853    11668.125    1940.3119 
   86800    297.24849   -1153.2985    6372.7506     11569.71    1855.0186 
   86900    299.09797   -1153.6968    6375.3267    11611.399    1868.2678 
   87000    300.57743   -1153.5623    6441.4427    11709.256    1881.7186 
   87100     297.8697   -1150.9554    6447.8273    11660.401    1896.2242 
   87200    301.54297   -1149.1813    6352.3185     11645.14    1926.2665 
   87300    297.82995   -1148.6889    6381.1149    11595.106    1875.3565 
   87400    299.63877   -1147.9622    6424.6084    11677.969    1881.0689 
   87500    299.25248   -1152.7559    6475.5183    11715.833    1907.2728 
   87600    301.04423   -1148.6872    6472.2756    11754.936    1899.1865 
   87700    297.80577   -1150.8473    6425.4605    11636.776    1866.4599 
   87800    303.23874   -1149.5104    6391.2698     11719.99     1869.114 
   87900    297.36785   -1149.5449    6412.8762    11616.139    1911.5654 
   88000    293.93771   -1148.4717    6384.8934     11515.95    1814.9893 
   88100    304.94954   -1139.6166    6458.2873     11833.45    1887.1409 
   88200    298.89705   -1148.5498     6476.831    11713.758    1910.9923 
   88300    305.28143   -1142.3683    6380.5807    11760.082    1920.8591 
   88400    302.25226   -1139.7521    6428.3952    11745.799    1893.4312 
   88500     300.1656   -1146.4178    6338.8314    11604.991    1894.3019 
   88600    297.95011   -1154.5835       6499.3    11709.963    1951.8765 
   88700    300.27824   -1154.0924    6435.6627    11696.554    1876.9007 
   88800    296.48409     -1149.53    6347.1204    11531.518    1810.5337 
   88900      299.847   -1153.7105    6508.6444    11760.705    1948.8795 
   89000    294.14979   -1156.5085    6404.1443    11531.695    1869.7882 
   89100    301.57073    -1148.206    6438.6622    11733.052    1934.3501 
   89200    298.10209   -1152.6722    6360.1469    11575.968     1914.582 
   89300    306.38441   -1151.4258    6302.8886    11696.896    1936.8772 
   89400      299.363   -1150.4752    6462.6032    11707.559    1908.6739 
   89500    299.21036   -1153.3984    6425.8978     11664.67    1906.3112 
   89600    301.93165   -1153.4224    6353.0768    11649.961    1880.8949 
   89700    296.94666   -1158.6957    6383.1471    11568.261     1867.763 
   89800    301.16318   -1165.8694    6446.0436    11714.063    1888.7745 
   89900    297.63011   -1155.3584    6384.4419    11587.494    1883.6874 
   90000    301.85135   -1154.4196    6449.9512    11744.123     1872.425 
   90100    298.25834   -1158.5484    6502.7038    11715.987     1924.434 
   90200    296.47214   -1154.2832     6413.266    11592.655    1926.3258 
   90300    301.65293    -1155.348     6436.652    11725.656    1967.8379 
   90400    299.53183   -1151.1452    6337.3048    11585.197    1898.3428 
   90500    294.54732    -1146.704    6448.5726     11594.42    1990.5826 
   90600    303.60361   -1155.3805    6212.4289    11543.074     1894.113 
   90700    299.17347   -1152.6797    6403.0644    11641.767    1834.3164 
   90800    306.35038    -1152.178    6587.9725      11980.5    1951.8487 
   90900     297.5017   -1153.1843    6438.8547    11641.338    1898.5532 
   91000    300.06131   -1147.7641    6475.2391    11737.825    1939.6355 
   91100    299.10975   -1147.9553    6284.3283    11526.394    1900.4189 
   91200    299.42862   -1148.0172     6385.792    11634.608    1914.5476 
   91300    296.39485   -1146.5668    6511.6299    11697.084    1916.6392 
   91400    301.27781   -1145.3172    6395.6931    11686.714    1872.4999 
   91500     305.6919   -1144.5071    6425.8073    11811.939    1883.2523 
   91600    302.20849   -1146.3656    6489.8069    11799.662    1935.3815 
   91700    297.49581   -1146.0238    6377.4159    11586.934    1945.9753 
   91800    303.30347     -1152.26    6424.9604    11752.314    1913.0661 
   91900    297.17995   -1155.2296    6546.0172    11739.581    1889.4405 
   92000    303.54568   -1155.2825    6455.0071    11784.512    1912.8854 
   92100    298.60014   -1154.3417    6358.2095    11583.002    1878.4972 
   92200    293.05196   -1158.3229    6357.9261    11460.209    1888.7973 
   92300    304.39175   -1154.0094    6366.6382    11715.492    1895.6684 
   92400    297.15989   -1151.5059    6559.5261    11756.385    1961.3058 
   92500    301.12489   -1156.9391    6287.2984    11563.431    1836.9263 
   92600    299.40623   -1158.2474    6351.1764    11589.284    1952.2387 
   92700    298.95764    -1151.216    6423.1744     11658.73     1947.817 
   92800    301.18057   -1156.8729    6377.7353    11655.123    1890.0214 
   92900    294.00329   -1154.3725     6425.348    11551.905    1940.5055 
   93000    300.99479   -1156.6675    6479.6683    11753.293    2019.9482 
   93100    297.14127   -1159.6351    6313.6702    11502.002    1896.5225 
   93200    300.73325   -1152.1546    6312.4991    11585.049    1910.3282 
   93300    303.40911   -1148.6579    6487.9472    11821.159    2000.5527 
   93400    299.41254   -1158.5117    6469.4579    11707.436    1968.5509 
   93500    300.89406     -1155.48    6284.4092    11557.069    1823.8608 
   93600    299.75615   -1157.2796    6387.0425    11633.593    1917.3196 
   93700    300.04439   -1151.4767    6429.0356    11687.547    1930.1843 
   93800    296.49588   -1151.5195    6566.6842    11749.344    1934.7352 
   93900    297.96131   -1144.0673    6470.6166    11692.035    1903.3697 
   94000    299.63458   -1149.8079    6435.4978    11686.923    1956.1793 
   94100    302.70957   -1147.8271    6384.0336    11703.132    1943.1925 
   94200    296.14776   -1142.7329    6376.3242    11560.334     1879.893 
   94300    293.89362   -1147.3568    6434.9873    11566.217    1888.0769 
   94400    299.48489   -1142.6542    6427.9918    11683.373    1836.4028 
   94500    298.70736   -1141.2722    6500.0308    11740.183    1908.5897 
   94600    298.12351   -1143.7715    6401.8905     11627.07    1901.4843 
   94700    305.39552   -1141.9712    6418.9929    11801.328     1868.784 
   94800    299.08135   -1142.9176    6571.1517    11817.648      1848.71 
   94900    302.01741   -1146.2924    6419.7198    11725.566    1816.0297 
   95000    298.89719   -1145.0756    6415.9913    11656.396    1911.3048 
   95100    294.53732   -1140.9149    6475.1761    11626.599    1880.4275 
   95200    301.21891   -1144.1337    6407.5634     11698.51    1871.3781 
   95300    301.68416    -1149.465     6429.575    11725.129    1901.7134 
   95400    302.72275   -1151.0304    6486.0611    11802.238    1906.4407 
   95500    297.46524   -1152.4561     6343.296    11545.728    1824.0854 
   95600    299.09874   -1153.2011    6324.2929    11560.877    1916.4374 
   95700     295.8871   -1155.0242    6400.9261    11567.076    1887.1043 
   95800    300.64408   -1153.0368    6432.3519    11702.115    1856.0307 
   95900    302.96213   -1148.9048    6545.1304    11868.547    1899.0498 
   96000    296.15756   -1152.8323    6382.6932    11556.813    1870.3019 
   96100    299.63469   -1157.9761    6285.0456    11528.305    1908.4959 
   96200    300.42117   -1157.8637    6339.3837    11599.557    1913.2368 
   96300    295.34351   -1158.0191    6455.6042    11607.146    1919.2071 
   96400    301.75823   -1161.0495    6512.2159    11797.768    1903.9923 
   96500    298.08242   -1155.1598    6413.2189    11626.133     1874.794 
   96600    301.48267   -1160.4557    6288.3172    11568.576    1937.9979 
   96700    301.37932   -1155.7262    6326.5126    11609.293    1978.3053 
   96800    304.04412   -1151.7342    6376.6964    11720.398     1919.949 
   96900     300.8066   -1150.2206    6416.5337    11692.585    1874.9946 
   97000    296.34458   -1156.5979    6501.8917    11676.241    1904.7523 
   97100    296.73191   -1156.4442    6475.3009    11658.079    1889.3728 
   97200    303.20233   -1155.5518    6273.6771    11595.578    1878.4376 
   97300    300.82657   -1152.3005    6383.3655    11657.763    1969.5516 
   97400    297.68591   -1152.9807    6558.9522    11765.574    1939.8155 
   97500    304.07147   -1154.4038    6424.5034     11766.12    1882.3969 
   97600    300.35002   -1145.4827    6376.6541    11647.689    1868.9877 
   97700    297.61001   -1150.8233    6444.1151    11651.273    1840.8611 
   97800    297.02395     -1147.68     6348.165    11545.946    1789.0587 
   97900    301.14423   -1146.9053    6394.5108     11681.09    1894.6452 
   98000    299.66375   -1147.6671    6445.4512     11699.64    1863.5583 
   98100    298.09083   -1147.5759    6510.4051    11731.082    1845.2235 
   98200    299.82185   -1143.8954    6563.9271    11825.265    1846.3896 
   98300     306.7681   -1145.3423    6305.3208    11713.608    1829.2753 
   98400    297.23283   -1150.7727    6525.4427    11724.593    1916.9267 
   98500    300.23473   -1155.4309    6432.7741    11691.397    1875.6098 
   98600    298.22648   -1151.9639    6444.1935    11663.381    1952.0125 
   98700    303.26937   -1150.6518    6345.1149    11673.348    1875.7612 
   98800    298.65175   -1151.2166    6452.2497    11681.269    1866.8848 
   98900    296.82113   -1152.1695    6436.5042    11625.463    1881.5309 
   99000    301.17402   -1155.2447    6393.7589    11672.635    1924.4232 
   99100    298.04197   -1150.0337    6303.4265    11520.602    1904.1284 
   99200    299.44454   -1157.9114     6389.313    11628.575    1929.7888 
   99300    305.71596   -1159.2403    6431.4488    11803.361    1890.1382 
   99400    296.73737    -1162.914    6386.7842    11563.209    1864.6329 
   99500    299.83909   -1158.0545    6406.1884    11653.736    1872.4307 
   99600    301.60958    -1159.684    6378.2796    11662.022    1904.8934 
   99700    297.08773   -1154.2315    6327.6226    11520.215    1886.0682 
   99800    306.14237   -1153.3617    6424.4998      11811.4    1941.8639 
   99900     297.4912   -1156.2009    6417.6271    11616.869     1922.268 
  100000    301.44782   -1154.8359    6300.3019    11585.436     1884.783 
  100100    297.00636   -1159.7373    6354.7487    11540.097    1947.6674 
  100200    300.33439   -1154.2534    6375.6456    11637.576    1925.1091 
  100300    302.63195   -1159.6821    6417.7903    11723.376    1862.3321 
  100400    300.76735   -1155.7438    6474.9611     11744.65    1839.2603 
  100500    301.07884   -1156.5022    6490.1957    11765.781    1853.7141 
  100600    300.72042   -1151.5197    6502.6269    11775.538    1874.4014 
  100700    296.18456   -1150.2723    6360.2642    11537.521    1813.9843 
  100800    306.97506   -1147.7438    6347.5221    11757.829    1888.3324 
  100900    296.74667   -1141.2867    6504.0691     11702.32     1925.531 
  101000    304.00454   -1144.0233    6327.3872    11677.954    1865.7201 
  101100    299.89829   -1147.1701      6507.56    11767.257    1889.3181 
  101200    299.57682   -1139.5143    6542.9059    11803.391    1829.3522 
  101300    302.05598   -1144.8951    6493.8079    11801.875    1826.5013 
  101400    295.13865   -1144.5901    6383.8947    11544.489    1804.6611 
  101500    300.66075   -1146.4358    6405.3969    11682.117    1868.5065 
  101600    299.94839    -1143.731    6407.9396    11672.146    1815.5652 
  101700    298.40075   -1142.9863    6478.7269    11710.615     1860.036 
  101800    304.53604   -1143.1022    6460.0915    11822.934     1904.655 
  101900    300.40355   -1143.5067    6445.4674    11719.622     1900.756 
  102000    302.40428   -1146.3324    6418.6099    11732.681    1900.3281 
  102100    293.00477   -1148.1948    6398.7787    11510.181    1921.0999 
  102200    302.88642   -1146.6234    6385.7597     11709.84    1938.8793 
  102300    298.50655   -1152.4555    6362.6176    11587.297    1912.6686 
  102400    299.15601   -1152.0194    6395.3784    11634.368    1894.0996 
  102500    300.35264   -1154.1275      6511.27    11773.716    1962.0595 
  102600    297.68671   -1154.0229    6403.0471    11608.644    1893.6326 
  102700    304.24976   -1163.8094    6339.3836    11675.403    1907.6639 
  102800    302.45998   -1162.7299    6353.8072    11652.671    1946.6032 
  102900    294.98697   -1160.1583    6359.5341     11501.32     1858.391 
  103000    297.66922   -1150.6561    6456.2797     11664.87     1831.781 
[...]
  588400    300.35605   -1162.3386    6349.2519    11603.559    1913.0763 
  588500    297.54819   -1165.7106    6412.5499      11603.5    1884.2081 
  588600    297.88096   -1164.2193    6403.9928    11603.543    1893.8847 
  588700    297.26732   -1168.8464    6421.6867    11603.501    1876.2859 
  588800    299.49334   -1166.7312    6372.0305    11603.515    1913.9718 
  588900    297.45361   -1162.5275    6411.3581    11603.471    1921.1882 
  589000    299.21945   -1164.7024    6375.8117    11603.474    1874.4525 
  589100    296.28166   -1164.3511    6438.2531    11603.505    1962.3857 
  589200    301.82204   -1160.0139    6315.5545    11603.505    1889.3023 
  589300    296.97891   -1157.6385    6416.5504    11603.411    1936.6287 
  589400    299.79361   -1163.8355    6362.7492    11603.544    1881.3789 
  589500    295.84669   -1163.1885    6446.3221    11603.444    1891.6649 
  589600    299.61042   -1165.0312    6367.7948     11603.48    1874.0228 
  589700    299.38229   -1162.0975    6369.6845     11603.43    1894.2007 
  589800    298.11199   -1165.9042    6400.6521    11603.453    1858.4002 
  589900    299.54504    -1164.851     6368.909    11603.378    1925.3083 
  590000    297.15124   -1161.4359    6416.6829    11603.427    1902.6298 
  590100    300.50838   -1164.7034    6348.2299    11603.427    1851.7356 
  590200    300.43876   -1170.3143    6355.3515     11603.45    1871.5048 
  590300    301.37814    -1167.595    6332.5639     11603.45    1831.4107 
  590400    297.78954   -1164.3082    6405.9773    11603.486    1836.3838 
  590500    298.26434   -1164.4397    6395.9798      11603.5    1933.2928 
  590600    296.31982   -1168.5266    6441.6615    11603.553    1950.9187 
  590700    299.24423   -1166.1917    6376.8543    11603.556    1842.9853 
  590800      297.186   -1173.0671    6427.6437    11603.499    1901.6844 
  590900    301.28019   -1169.8193    6336.8548    11603.424    1891.1268 
  591000    296.88147   -1159.8403    6420.9556    11603.532    1911.7013 
  591100    299.22587    -1160.911    6371.9462    11603.537    1913.4073 
  591200    298.42918   -1156.6821    6384.7242    11603.524    1978.3059 
  591300    299.64536    -1166.058    6368.0628    11603.468    1928.2762 
  591400    296.57683   -1160.6346    6428.2243    11603.499    1913.5607 
  591500    296.90607   -1164.7304    6425.3418    11603.554    1947.5759 
  591600    301.34013   -1169.3269    6335.1633    11603.506    1895.6887 
  591700    295.28072   -1165.2339    6460.5018    11603.487    1882.6519 
  591800    297.78791   -1165.4123    6407.0789    11603.448    1925.1029 
  591900     298.5369   -1161.7188    6387.3709    11603.435    1906.3956 
  592000    299.00221   -1165.0168    6380.8094    11603.516    1898.1278 
  592100    297.51898   -1155.5687    6402.9012    11603.369    1918.2313 
  592200    302.58119   -1155.2696    6294.5268     11603.44     1881.755 
  592300    297.79502   -1160.3185    6401.7716    11603.387    1923.2587 
  592400    300.53124   -1165.6289    6348.6717    11603.432    1870.3493 
  592500    296.85381   -1166.8437    6428.4454    11603.428    1811.4803 
  592600    300.90296   -1166.1405     6341.156    11603.345    1800.9097 
  592700    297.79825   -1168.0092    6409.2955    11603.289    1841.6526 
  592800    299.73034   -1163.6699    6363.7123    11603.321      1862.41 
  592900      294.667   -1162.5295    6470.7875    11603.366     1864.977 
  593000    297.85081   -1160.5459     6400.693    11603.273     1841.477 
  593100    299.28844   -1166.7174    6376.1978    11603.319     1878.051 
  593200    300.68964   -1151.1097    6330.7158    11603.379    1915.7218 
  593300    299.15731   -1155.4369    6367.8157    11603.416    1865.6666 
  593400    297.72801    -1166.783    6409.7348    11603.454     1924.818 
  593500    299.65527   -1158.6645    6360.4024    11603.413    1834.7463 
  593600    298.19558   -1170.3754    6403.3565    11603.472    1831.5036 
  593700     300.0275   -1172.4667    6366.3297     11603.49    1901.2177 
  593800    297.71583   -1172.6917    6415.9725    11603.523    1944.9283 
  593900    296.22372   -1165.8199    6440.9286    11603.474    1908.9209 
  594000    300.66704   -1158.2054    6338.2962    11603.381    1887.5801 
  594100    298.65155   -1162.0306    6385.2369    11603.438    1938.5205 
  594200    296.45615   -1161.4475    6431.5503    11603.434    1934.8477 
  594300    302.87971   -1161.2279    6294.1112    11603.444    1926.0566 
  594400    298.86988   -1166.0429    6384.6222    11603.476    1985.0458 
  594500    295.45363    -1172.676    6464.3219    11603.559    1887.4356 
  594600    299.02266   -1170.5577    6385.9426    11603.545    1828.5276 
  594700    295.89342   -1167.9799    6450.1688    11603.498    1908.3988 
  594800    299.87439   -1171.5282    6368.6298    11603.458     1948.084 
  594900     298.1348   -1170.0856    6404.3486    11603.456    1881.4546 
  595000    299.56602   -1160.2358    6363.8534    11603.386    1885.5735 
  595100     297.9325   -1164.4406    6402.9905    11603.421    1945.9623 
  595200    297.01272   -1158.6431    6416.8077    11603.386    1829.5359 
  595300    298.86231   -1161.2848    6380.0072    11603.457    1856.3748 
  595400    297.57388   -1160.0676    6406.3127    11603.454    1930.8873 
  595500    298.99454   -1169.3677    6385.1781     11603.37    1863.1498 
  595600    299.04036   -1166.0805    6380.9574    11603.415    1838.9695 
  595700    294.54779   -1165.3022    6476.2567    11603.516    1918.2168 
  595800    299.76108   -1168.5986    6368.1127     11603.45    1897.7893 
  595900    297.89388   -1162.0604    6401.5143      11603.5    1876.0153 
  596000    298.72924   -1160.2687    6381.8095    11603.433    1921.7971 
  596100    295.95089   -1157.9367    6438.8849    11603.485    1947.1201 
  596200    297.64927    -1157.405    6401.9439    11603.359    1910.6023 
  596300    299.00642   -1157.6901     6373.326    11603.449    1953.6561 
  596400    301.50332   -1165.7125    6328.0293    11603.473    2004.9156 
  596500    296.22946   -1162.9941    6438.0209    11603.515    1913.4246 
  596600    297.73902   -1167.5135    6410.3855    11603.609    1914.2267 
  596700    297.81542   -1167.7758    6408.9901    11603.584    1964.8356 
  596800    300.25096   -1171.3404    6360.4831    11603.544    1899.7501 
  596900    295.99182   -1169.1182    6449.1966     11603.49    1916.6964 
  597000    295.98425   -1162.9956    6443.1989    11603.453    1925.0405 
  597100    301.35335   -1162.2505    6327.8161    11603.517    1968.3171 
  597200    298.89576   -1162.3078    6380.3455    11603.487    1902.4478 
  597300    296.20971   -1165.0427    6440.5278    11603.551    1895.9617 
  597400    300.14654   -1172.6971    6364.1555    11603.629    1935.2626 
  597500    294.90803   -1169.9094    6473.2931    11603.641    1928.6093 
  597600    300.40903   -1167.9368    6353.7062    11603.547    1947.5954 
  597700    301.70059   -1168.3172    6326.5191    11603.572     1906.728 
  597800    297.03006   -1167.6131    6425.6615     11603.64    1875.9453 
  597900    294.19882   -1165.9496     6484.384    11603.541    1915.5597 
  598000    301.34505   -1164.6111    6330.3763     11603.54    1932.7842 
  598100    298.02839   -1161.1553     6397.756     11603.52    1906.9301 
  598200    296.24816   -1162.4242     6437.074    11603.537    1859.8849 
  598300    300.67896   -1162.6775    6342.6908    11603.558    1839.8406 
  598400    294.29144   -1162.6448    6479.0931    11603.533    1893.3078 
  598500    301.94307   -1164.9604    6317.8977    11603.488     1881.857 
  598600    295.60051   -1163.8603    6452.3228    11603.514    1905.5972 
  598700    297.54216   -1162.7681    6409.6981    11603.462    1824.6301 
  598800     298.0954   -1155.7714     6390.907    11603.486    1849.2174 
  598900    298.92889   -1160.2215    6377.4962    11603.432    1872.4874 
  599000    299.54138   -1160.0733    6364.1718     11603.34    1899.8906 
  599100    298.92635   -1157.9877    6375.2802    11603.395    1893.4399 
  599200    299.74094   -1160.9794    6360.8552    11603.381    1866.6157 
  599300    300.27434    -1159.671    6348.0209     11603.25    1876.5958 
  599400    296.26802   -1162.3933    6436.3839    11603.302    1911.6723 
  599500    301.26274   -1160.4648    6327.8285     11603.38    1868.7682 
  599600    297.77992   -1163.2678    6405.0387    11603.382    1872.7494 
  599700    295.21539   -1157.7716    6454.3641    11603.416    1922.0959 
  599800    301.48563   -1163.8305    6326.4848    11603.432    1875.3958 
  599900    297.63411   -1162.5922    6407.5826    11603.486    1851.1947 
  600000    298.92753   -1160.0453    6377.3551    11603.438    1827.9102 
Loop time of 279.435 on 8 procs for 300000 steps with 7168 atoms

Pair  time (%) = 137.874 (49.3401)
Bond  time (%) = 81.0335 (28.999)
Neigh time (%) = 19.4844 (6.97279)
Comm  time (%) = 30.8172 (11.0284)
Outpt time (%) = 0.477592 (0.170913)
Other time (%) = 9.74905 (3.48884)

Nlocal:    896 ave 898 max 894 min
Histogram: 1 0 3 0 0 1 0 1 0 2
Nghost:    2842.62 ave 2849 max 2836 min
Histogram: 1 0 1 1 1 1 1 0 1 1
Neighs:    23623.1 ave 23931 max 23308 min
Histogram: 1 1 1 1 0 0 1 1 1 1

Total # of neighbors = 188985
Ave neighs/atom = 26.3651
Ave special neighs/atom = 157.056
Neighbor list builds = 3037
Dangerous builds = 0
# −−−−−−−−−−−−−− Flux calculation in nve −−−−−−−−−−−−−−−
reset_timestep  0
compute         PE all pe/atom
compute         KE all ke/atom

variable        CX atom (vx*(c_KE+c_PE))
compute         Jcx all reduce sum v_CX

variable        CZ atom (vz*(c_KE+c_PE))
compute         Jcz all reduce sum v_CZ

variable        CY atom (vy*(c_KE+c_PE))
compute         Jcy all reduce sum v_CY

compute         SA all stress/atom virial

variable        VX atom -(c_SA[1]*vx+c_SA[4]*vy+c_SA[5]*vz)*1.4593e-5
compute         Jvx all reduce sum v_VX

variable        VZ atom -(c_SA[3]*vz+c_SA[6]*vy+c_SA[5]*vx)*1.4593e-5
compute         Jvz all reduce sum v_VZ

variable        VY atom -(c_SA[2]*vy+c_SA[6]*vz+c_SA[4]*vx)*1.4593e-5
compute         Jvy all reduce sum v_VY

variable        Jx equal (c_Jcx+c_Jvx)/vol
variable        Jz equal (c_Jcz+c_Jvz)/vol
variable        Jy equal (c_Jcy+c_Jvy)/vol

fix             JJTx all ave/correlate $s $p $d                 v_Jx type auto file J0Jt_tx.dat ave running
fix             JJTx all ave/correlate 5 $p $d                 v_Jx type auto file J0Jt_tx.dat ave running
fix             JJTx all ave/correlate 5 20000 $d                 v_Jx type auto file J0Jt_tx.dat ave running
fix             JJTx all ave/correlate 5 20000 100000                 v_Jx type auto file J0Jt_tx.dat ave running

fix             JJTz all ave/correlate $s $p $d                 v_Jz type auto file J0Jt_tz.dat ave running
fix             JJTz all ave/correlate 5 $p $d                 v_Jz type auto file J0Jt_tz.dat ave running
fix             JJTz all ave/correlate 5 20000 $d                 v_Jz type auto file J0Jt_tz.dat ave running
fix             JJTz all ave/correlate 5 20000 100000                 v_Jz type auto file J0Jt_tz.dat ave running

fix             JJTy all ave/correlate $s $p $d                 v_Jy type auto file J0Jt_ty.dat ave running
fix             JJTy all ave/correlate 5 $p $d                 v_Jy type auto file J0Jt_ty.dat ave running
fix             JJTy all ave/correlate 5 20000 $d                 v_Jy type auto file J0Jt_ty.dat ave running
fix             JJTy all ave/correlate 5 20000 100000                 v_Jy type auto file J0Jt_ty.dat ave running

run             1000000
Memory usage per processor = 13.8919 Mbytes
Step Temp E_pair E_mol TotEng Press 
       0    298.92753   -1160.0453    6377.3551    11603.438    1827.9102 
     100    300.15169   -1163.7937    6354.9385    11603.425    1887.7863 
     200    298.62801   -1162.7928    6386.5407    11603.477    1875.4385 
     300    299.46286   -1159.3734    6365.2518    11603.443    1914.8109 
     400    300.09726   -1166.7135    6358.9947    11603.399    1871.3166 
     500    295.98789   -1169.1835    6449.3928    11603.536    1884.0881 
     600    304.26386   -1166.6569    6270.0637    11603.537     1904.692 
     700    296.09417   -1169.1492    6447.0945    11603.543    1894.8194 
     800    301.00878   -1168.5891    6341.5569    11603.558    1890.5153 
     900    300.28334    -1170.026    6358.4919    11603.559     1939.535 
    1000    297.88659   -1161.9201    6401.4775    11603.447    1883.6558 
    1100    295.64653   -1169.1099    6456.5399    11603.464    1843.4155 
    1200    299.93029   -1163.4466    6359.3439    11603.448    1857.6305 
    1300    297.64933   -1163.6096    6408.3646    11603.576    1884.4066 
    1400    297.71719   -1164.9987    6408.2499    11603.522    1897.3879 
    1500    299.32465   -1167.5015    6376.4427    11603.553    1868.9423 
    1600    298.69288   -1163.8213    6386.2628    11603.557    1944.2212 
    1700    299.45735   -1167.8655    6373.8413    11603.423    1928.4952 
    1800    298.21937   -1162.9868    6395.4144    11603.427    1833.3312 
    1900     296.8222    -1162.704    6425.0734     11603.52    1872.7829 
    2000    299.95451   -1164.0314    6359.3154    11603.352    1829.9126 
    2100    295.78383   -1163.3695    6447.8944    11603.493    1931.4127 
    2200    300.14311     -1159.38    6350.6953    11603.412    1936.1646 
    2300    292.89691   -1151.3885    6497.5345    11603.439    1954.8166 
    2400    299.90824   -1159.3585    6355.6941    11603.415    1891.7551 
    2500    300.68028   -1155.5387    6335.3296    11603.364    1833.4333 
    2600    296.70997   -1157.2689    6421.9029    11603.387    1907.4478 
    2700    298.57474   -1165.2823    6390.0052    11603.314    1893.9391 
    2800    298.07937   -1163.2407    6398.5712    11603.339    1872.2191 
    2900    297.73048   -1164.3993    6407.2542     11603.41    1858.4815 
    3000    298.82772   -1161.5208    6380.9053     11603.38    1841.4055 
    3100    294.72248   -1162.7321    6469.8181     11603.38     1873.613 
    3200    298.76934   -1163.1834    6383.8924    11603.457    1930.9842 
    3300    297.79029   -1159.9943    6401.5724    11603.411    1930.6836 
    3400     296.2203   -1164.7115    6439.8663    11603.447    1904.6465 
    3500    297.81805   -1162.9323    6403.9369     11603.43      1906.45 
    3600    299.42587   -1159.9079     6366.534      11603.4    1882.5427 
    3700    299.85235   -1167.2309     6364.788    11603.443    1848.3035 
    3800    296.09975   -1166.3991    6444.1603    11603.478    1867.9648 
    3900    298.51074   -1166.5024    6392.8763    11603.598     1859.097 
    4000    297.80983   -1170.7119    6412.0625    11603.601    1815.0699 
    4100     299.1572   -1167.1826    6379.7761    11603.628    1810.2563 
    4200    297.59968   -1162.2288    6408.0521    11603.584    1849.8271 
    4300    298.74482   -1169.1797    6390.5131    11603.558    1824.5131 
    4400    298.95981   -1162.2213     6378.955    11603.551    1940.2173 
    4500    299.09992    -1165.233    6378.9606    11603.538    1950.8602 
    4600    300.01289   -1163.4141    6357.6698    11603.571    1958.4761 
    4700    294.62831   -1161.0351    6470.3736     11603.62    1956.5975 
    4800    302.17725   -1161.2714    6309.1649    11603.447    1930.6378 
    4900    300.58481   -1166.4056      6348.38    11603.508    1868.7151 
    5000    297.16669    -1165.312    6420.3361    11603.534    1913.2323 
    5100    299.55356   -1161.5336    6365.5577    11603.526    1887.5649 
    5200    298.80598   -1167.3661    6387.2763    11603.441    1834.9203 
    5300    296.40129   -1157.6167    6428.8832    11603.425    1823.9061 
    5400     302.0716    -1165.815    6316.0021    11603.483    1853.9888 
    5500    298.69087   -1158.9392    6381.2714    11603.404    1875.7847 
    5600    296.67134   -1157.2088     6422.599    11603.318    1829.5718 
    5700    299.01683   -1160.5278    6375.8302    11603.338     1903.676 
    5800    297.36135   -1158.6677    6409.2794    11603.281    1956.9844 
    5900    299.72697   -1163.4121     6363.548    11603.343    1832.5939 
    6000    295.77216   -1153.2763    6437.9709    11603.413    1880.4446 
    6100    300.43203   -1164.5207    6349.6211     11603.37    1912.7623 
    6200    298.49754   -1161.8455    6388.3114    11603.408    1869.0658 
    6300    299.45074   -1163.9623    6370.1181    11603.461    1824.1486 
    6400    296.61938   -1167.5604    6434.1629     11603.42    1926.6369 
    6500    297.18622   -1162.9564    6417.4647    11603.436    1880.0262 
    6600    297.60582   -1167.7169    6413.2805    11603.455    1895.1815 
    6700     299.8268   -1164.4343    6362.5523    11603.457    1863.4533 
    6800    299.03876   -1160.0222    6374.9546    11603.437    1877.0651 
    6900    299.71818   -1161.9554    6362.3826    11603.446     1932.489 
    7000    296.39249   -1163.6778    6435.1544    11603.447    1950.9698 
    7100    299.49058   -1167.8947    6373.2117    11603.474    1909.3835 
    7200    300.87468   -1172.6875    6348.4453    11603.484    1883.3064 
    7300    299.79025   -1166.3262    6365.2413    11603.474    1858.9824 
    7400    296.70816   -1170.0494    6434.8602    11603.525     1892.309 
    7500    297.16569   -1169.8567    6424.8411    11603.473    1897.4052 
    7600    296.95245   -1159.5032    6419.0895     11603.52    1930.3181 
    7700    299.02322   -1159.9042    6375.1525    11603.421    1923.5846 
    7800    300.75331   -1162.8097    6341.0969     11603.42    1890.3932 
    7900    295.70485   -1161.7796    6448.0064    11603.507    1907.9087 
    8000    301.21576   -1165.9043    6334.3232    11603.431    1840.0465 
    8100    295.80982   -1167.6985    6451.7148    11603.539    1934.9284 
    8200    301.98764   -1165.9928    6317.9372    11603.447    1874.2032 
    8300    297.02656   -1160.5867    6418.4995     11603.43    1892.1611 
    8400    299.18717   -1161.9205    6373.6664    11603.421    1880.1703 
    8500    297.28928   -1156.8151    6409.1356     11603.45    1917.3911 
    8600    300.63904   -1159.6971    6340.4434    11603.438    1921.2121 
    8700    295.36429   -1158.8146    6452.2537    11603.444    1892.0488 
    8800    294.22341   -1157.9355    6475.7707    11603.467    1877.2462 
    8900    302.10321    -1159.897    6309.3927    11603.467    1836.7178 
    9000    300.47283   -1166.1523    6350.4564    11603.445     1896.577 
    9100    295.18194   -1162.0411    6459.3188    11603.387    1861.5102 
    9200    296.95471   -1161.4743    6420.8239    11603.331    1855.8693 
    9300     303.2072   -1164.1395    6289.9505    11603.368    1908.3411 
    9400    297.39074   -1162.2789    6412.4408    11603.459    1855.8414 
    9500    298.52316   -1163.5025    6389.4387    11603.425    1896.0582 
    9600    298.80113   -1160.9588    6380.8637    11603.333    1935.1182 
    9700    298.33896   -1162.3043    6392.1446    11603.394    1882.8217 
    9800     295.7892   -1165.5285    6449.8835    11603.437    1897.2779 
    9900     299.0925   -1167.1631    6380.9873    11603.477    1921.7895 
   10000    297.60612   -1166.0765    6411.6659    11603.488    1885.2982 
Loop time of 1406.58 on 8 procs for 1000000 steps with 7168 atoms

Pair  time (%) = 565.319 (40.1909)
Bond  time (%) = 297.464 (21.148)
Neigh time (%) = 65.0237 (4.62281)
Comm  time (%) = 105.182 (7.47781)
Outpt time (%) = 0.00341433 (0.000242739)
Other time (%) = 373.592 (26.5602)

Nlocal:    896 ave 901 max 892 min
Histogram: 1 0 2 1 0 2 1 0 0 1
Nghost:    2848.38 ave 2852 max 2840 min
Histogram: 1 0 0 0 0 2 0 1 1 3
Neighs:    23621.5 ave 24059 max 23327 min
Histogram: 2 2 0 0 0 2 0 1 0 1

Total # of neighbors = 188972
Ave neighs/atom = 26.3633
Ave special neighs/atom = 157.056
Neighbor list builds = 10113
Dangerous builds = 0
