LAMMPS (11 Jun 2012)
# Initialization
atom_style      full
units           real
variable        T equal 300
variable        dt equal 1.0
variable        seed equal 123457
variable        radius equal 0.5
variable        sizet equal 4
variable        sizeb equal -4
variable        p equal 20000    # correlation length
variable        s equal 5        # sample interval
variable        d equal $p*$s    # dump interval
variable        d equal 20000*$s    variable        d equal 20000*5    
# convert from LAMMPS real units to SI
variable        kB equal 1.3806504e-23    # [J/K] Boltzmann
variable        kCal2J equal 4186.0/6.02214e23
variable        A2m equal 1.0e-10
variable        fs2s equal 1.0e-15
variable        convert equal ${kCal2J}*${kCal2J}/${fs2s}/${A2m}
variable        convert equal 6.9510174124148567155e-21*${kCal2J}/${fs2s}/${A2m}
variable        convert equal 6.9510174124148567155e-21*6.9510174124148567155e-21/${fs2s}/${A2m}
variable        convert equal 6.9510174124148567155e-21*6.9510174124148567155e-21/1.0000000000000000777e-15/${A2m}
variable        convert equal 6.9510174124148567155e-21*6.9510174124148567155e-21/1.0000000000000000777e-15/1.0000000000000000364e-10
variable        b_eq equal 10.0/3.0

# setup problem
dimension       3
boundary        p p p
neighbor        2    bin
pair_style      lj/cut 10.0
bond_style      morse
read_data       lammps.data
  9 = max bonds/atom
  orthogonal box = (0 0 0) to (80 80 80)
  2 by 2 by 2 MPI processor grid
  7168 atoms
  33696 bonds
  10 = max # of 1-2 neighbors
  86 = max # of 1-3 neighbors
  824 = max # of 1-4 neighbors
  164 = max # of special neighbors
pair_coeff      1 1 0.000 3.500
pair_coeff      2 2 0.000 3.500
pair_coeff      1 2 0.105 3.500
bond_coeff      1 10 1.8 ${b_eq}
bond_coeff      1 10 1.8 3.3333333333333334814
bond_coeff      2 5 0.805 7.4536
bond_coeff      3 10 1.8 ${b_eq}
bond_coeff      3 10 1.8 3.3333333333333334814
bond_coeff      4 5 0.805 7.4536
velocity        all create $T ${seed} mom yes rot yes dist gaussian
velocity        all create 300 ${seed} mom yes rot yes dist gaussian
velocity        all create 300 123457 mom yes rot yes dist gaussian
timestep        ${dt}
timestep        1
thermo          100
dump            T1 all cfg 600000 *.cfg id type xs ys zs
dump            T2 all xyz 10000 traj.xyz
#dump_modify    1 element Cu
# −−−−−−−−−−−−− Equilibration and thermalisation −−−−−−−−−−−−−−−−
fix             NVT all nvt temp $T $T 10
fix             NVT all nvt temp 300 $T 10
fix             NVT all nvt temp 300 300 10
run             300000
Memory usage per processor = 11.5453 Mbytes
Step Temp E_pair E_mol TotEng Press 
       0          300   -906.89526 0.00012694983    5502.1446    343.62551 
     100    243.04913   -935.24394    7055.6137    11312.741    2188.8635 
     200    293.33377   -991.82631    10008.388    15283.188    1262.1573 
     300    303.56149    -988.5519    8392.0076    13888.581    597.74115 
     400    298.26625   -968.11374    6458.1564    11862.043      923.785 
     500    298.18464   -951.02952    5684.5365    11103.764    1316.1168 
     600    300.37241     -947.658    5540.1961    11009.534    1273.6054 
     700    297.28042   -959.72634    6393.3653    11784.579    1145.5043 
     800    300.40988   -973.74397    7286.9171    12730.969    1177.5639 
     900    300.64659   -976.90604    7235.3307    12681.278    1142.5998 
    1000    304.60225   -970.57144     6572.889    12109.677    1183.5491 
    1100    298.51539   -966.93387     6260.554    11670.943    1305.4746 
    1200    303.55599   -969.67154    6325.9207    11841.257    1350.5679 
    1300    297.34819   -973.64663    6409.4818    11788.223    1181.1321 
    1400    298.29081   -980.02225    6659.0912    12051.594    1176.0293 
    1500    295.17957   -985.03535    7030.7365     12351.76    1332.3557 
    1600    300.03662   -984.09718    6698.2264    12123.951    1232.1859 
    1700    300.10727   -982.54847      6316.59    11745.373     1223.664 
    1800    295.07046   -984.82478    6459.3603    11778.263    1374.0461 
    1900    301.77302    -989.9829    6586.6716    12043.606    1279.5702 
    2000    299.26186   -994.00636    6631.3387    12030.603     1357.231 
    2100    297.84587   -995.35997    6616.5598     11984.22    1479.7066 
    2200    302.67296   -998.82147    6405.5881     11872.91    1476.8626 
    2300    299.12905   -1006.1171    6443.1016    11827.418     1567.409 
    2400    294.50806   -1015.5391    6415.3006    11691.474     1397.614 
    2500    303.29337   -1025.5086    6658.6741    12112.563    1381.8591 
    2600    298.37566   -1035.6379    6504.3719    11843.072    1347.3369 
    2700    299.87655   -1044.1905    6463.9949    11826.207    1384.9092 
    2800     301.4615   -1057.0762    6489.3836     11872.57    1467.0482 
    2900    297.97068   -1072.7859    6443.1973    11736.098    1598.6995 
    3000    302.83475   -1084.7695    6183.0206    11567.851    1504.8268 
    3100    294.48327   -1102.1785    6322.6129    11511.618    1497.4172 
    3200    299.39586    -1111.496    6553.4879    11838.125    1600.2695 
    3300    304.13541   -1122.9552    6249.0958    11623.527    1554.0239 
    3400    297.47519   -1120.8878    6181.1513    11415.364    1623.1327 
    3500    300.36664   -1123.0933    6240.0933    11533.872    1661.4094 
    3600    300.78517   -1116.0888    6410.5139    11720.239     1770.004 
    3700    297.39198   -1110.7374    6454.0286    11696.615    1770.0058 
    3800    298.36502   -1125.7921    6203.3536    11451.672    1674.1721 
    3900    301.20374   -1132.4801    6297.3151    11599.591    1732.0366 
    4000    295.63011   -1151.2017    6303.4313    11467.913    1623.6694 
    4100    302.16213   -1155.9803    6393.6179    11692.868    1659.8159 
    4200    297.44664   -1156.0905    6440.1312    11638.532    1697.4187 
    4300      301.345   -1153.1744    6281.4126    11566.012    1697.8446 
    4400    297.59317   -1153.7706    6062.2278    11266.079    1701.3452 
    4500     303.8624   -1143.4766    6222.1485    11570.226    1787.7075 
    4600    304.45966   -1146.0589    6224.6422    11582.897    1737.7824 
    4700    295.97489   -1145.6596    6381.0586    11558.448    1665.4529 
    4800    306.93942   -1136.4899    6562.1475    11982.947    1778.4756 
    4900     299.5094    -1138.435    6332.4816    11592.605    1723.1102 
    5000    300.49422   -1130.0848     6172.406    11461.919    1727.1042 
    5100    299.51792   -1122.5286    6261.4285    11537.641    1802.8358 
    5200    302.01211   -1118.8432    6324.5204    11657.702    1734.0516 
    5300    299.05067    -1115.318    6585.8515    11859.292    1682.4875 
    5400    297.98265   -1113.0128    6401.1073    11654.037    1690.3457 
    5500    299.95259   -1116.2869    6160.6808    11452.421    1695.5145 
    5600    299.30719   -1111.7106    6254.6913     11537.22    1720.0587 
    5700    296.45657   -1114.8064    6382.0919    11600.625    1713.8731 
    5800    299.65067   -1123.0552     6414.227    11692.749    1771.7347 
    5900    301.97264   -1125.9797    6349.2921    11674.495    1686.5184 
    6000    297.77417   -1127.7097    6413.3325    11647.111    1722.0328 
    6100    302.58693   -1129.5177    6291.6361    11626.424    1665.3317 
    6200    302.02333   -1137.8885    6300.5691    11614.946    1654.4579 
    6300    295.57742   -1142.2827    6329.7763    11502.052    1645.8086 
    6400     300.8274   -1157.8164     6359.689    11628.588    1715.5294 
    6500    299.51604   -1163.1881     6313.643    11549.156    1696.8694 
    6600    300.91648   -1169.8604    6317.7805    11576.539    1646.4016 
    6700    299.11112   -1170.7924    6328.6653    11547.923    1722.9777 
    6800    298.94962   -1170.6312     6284.548    11500.517    1774.6899 
    6900    295.84588    -1154.993    6283.1492    11448.449    1751.6049 
    7000    300.79377   -1156.7179     6169.396    11438.675    1754.1617 
    7100    297.47319   -1153.7551    6349.5134    11550.817    1828.7298 
    7200    302.03792   -1154.4862    6408.4821    11706.573    1775.9292 
    7300     298.3143   -1163.6334    6398.7554    11608.149    1744.6077 
    7400    303.18056   -1165.3396    6403.9625     11715.61    1732.0114 
    7500    298.42809   -1164.6022     6274.463    11485.319    1688.5843 
    7600    305.20471   -1161.2902    6340.1169    11699.057    1800.9923 
    7700    297.97466   -1157.8822    6413.2718    11621.161    1854.8513 
    7800    301.80894   -1147.5329    6339.2434    11639.395    1864.7478 
    7900    300.61757   -1137.3916    6337.7564    11622.598    1817.4115 
    8000    301.96205   -1138.0199    6205.4148    11518.351    1736.7715 
    8100    299.38075   -1127.5083    6388.5243    11656.826    1844.0488 
    8200    296.00629   -1122.7067     6431.851    11632.864     1831.565 
    8300    300.09262   -1118.0429    6350.8048     11643.78    1821.1256 
    8400    299.72048   -1109.8815    6403.4206    11696.607    1784.1537 
    8500    300.82295   -1104.6458    6488.0635    11810.038     1740.953 
    8600    301.01309   -1102.9149    6453.4719     11781.24    1733.1443 
    8700    296.31913    -1097.579    6337.3143    11570.139    1697.5404 
    8800    300.99701   -1098.1891     6403.538    11735.688    1805.2038 
    8900    299.80606    -1101.871    6427.2785    11730.304    1754.8078 
    9000    303.92265   -1106.5902    6528.3673    11914.618    1797.2708 
    9100    298.04164   -1113.5061    6375.3873    11629.084    1791.0148 
    9200    300.93816   -1117.1045    6305.6151    11617.593    1766.3275 
    9300    299.93616   -1125.8892    6461.3172    11743.104    1837.6235 
    9400     302.3426   -1132.5419    6453.3505    11779.894     1815.362 
    9500    298.50016   -1135.1786    6239.7381    11481.557    1694.7564 
    9600    302.27211   -1136.3986    6410.4435    11731.625    1767.4847 
    9700    296.68821   -1131.8954    6391.9841    11598.377    1764.2676 
    9800    300.98294   -1145.4322    6338.3449    11622.951    1796.4126 
    9900    299.01777   -1147.3938    6312.1967    11552.859     1769.062 
   10000    299.24417   -1150.8516    6315.6925    11557.733    1783.6448 
   10100    305.18645   -1157.6451    6398.0815    11760.277    1810.4807 
   10200    296.64249   -1160.2819    6348.7571    11525.787    1807.5322 
   10300    305.87226    -1161.972    6339.9958    11712.515    1813.6283 
   10400    304.43018   -1163.5649    6324.8063    11664.925    1848.9708 
   10500    298.10993   -1163.1987    6150.2982    11355.761    1825.6393 
   10600    301.53621   -1161.3035    6411.8573    11692.412     1900.654 
   10700    300.05559   -1161.9861    6377.7881    11626.029    1831.0156 
   10800    296.91244   -1158.1606    6287.0216     11471.94    1887.4178 
   10900      306.167   -1161.0354     6269.124    11648.877    1868.2082 
   11000    297.91481    -1161.295    6320.5861    11523.784    1774.1855 
   11100    304.67387    -1155.947     6357.266    11710.209    1823.4878 
   11200    297.80038    -1147.284    6357.3764    11572.141    1810.9778 
   11300    301.92342   -1136.4732     6444.933     11758.59    1801.2903 
   11400    300.69787   -1130.5463    6428.7809    11722.183    1848.7497 
   11500    299.63591   -1125.0468    6384.8472    11661.062    1833.4217 
   11600    302.09891   -1131.5673    6398.6971    11721.009    1785.5334 
   11700    299.14586    -1125.548    6465.9134    11731.158    1782.8903 
   11800    301.97817   -1130.6206    6378.9706     11699.65    1730.4952 
   11900     296.9579   -1125.1693    6442.0477    11660.928     1697.682 
   12000    304.75343   -1120.7003    6464.8611     11854.75     1739.129 
   12100    296.94286   -1119.7655     6360.851    11584.814    1679.1619 
   12200    302.39354   -1113.2612    6331.1693    11678.082    1698.0269 
   12300     297.8182   -1117.7592    6486.4134    11731.083    1736.0563 
   12400    300.94083    -1118.666    6429.2487    11739.722    1716.9042 
   12500    298.10205   -1117.8055    6450.3805    11701.068    1798.9164 
   12600    303.08736   -1119.4755    6384.3692     11739.89      1739.82 
   12700    294.29792   -1118.6512    6452.5188    11621.091    1737.9012 
   12800    299.68586   -1121.5201    6382.1344    11662.943    1758.0445 
   12900    301.27183   -1127.2403    6419.9829    11728.953    1870.4887 
   13000    294.32029   -1129.2006    6452.0294     11610.53    1858.0545 
   13100    296.84605   -1131.7078    6303.2915    11513.244    1796.3904 
   13200    304.25585   -1133.7005    6405.9877    11772.247    1834.6493 
   13300    298.60017   -1139.5626    6363.9388    11603.511     1806.584 
   13400    300.56392   -1144.7079    6275.6823    11552.062    1760.6826 
   13500    300.98494   -1154.4917    6454.0154    11729.605    1923.4916 
   13600     301.9271    -1156.291     6321.193    11615.111    1855.0522 
   13700    301.12867   -1162.4672    6328.5234    11599.208    1819.1588 
   13800    307.11636   -1163.8727    6316.0835    11713.281     1891.666 
   13900     303.8251   -1170.7931    6337.5118    11657.476    1925.0045 
   14000    299.75356    -1173.589    6317.5284    11547.714     1848.687 
   14100    300.03571   -1165.8368    6372.1418    11616.107     1862.195 
   14200    295.73277   -1165.3592    6337.5488    11490.067    1806.8483 
   14300    298.59607    -1165.399     6360.992     11574.64    1805.7562 
   14400    298.51509   -1163.5715    6316.3008    11530.046     1804.337 
   14500    299.22185   -1168.6108    6370.8551     11594.66    1839.0909 
   14600    301.35874   -1168.8141    6342.3815    11611.635     1777.638 
   14700    298.93746    -1169.822    6363.1673    11579.685    1755.6375 
   14800     302.4488   -1172.5065    6360.3362    11649.184    1822.6097 
   14900    297.66414   -1166.3892    6372.2214     11564.97     1774.649 
   15000    297.25377   -1157.5069     6405.169    11598.033    1788.4726 
   15100    305.09648   -1155.4597     6376.207    11738.665    1901.9265 
   15200    296.74064   -1154.3548    6340.7124    11525.766    1821.2985 
   15300    298.47204   -1144.6542    6350.2435    11581.987     1795.026 
   15400    304.17165   -1143.8637    6376.6263    11730.923    1852.3379 
   15500    296.04543   -1136.5492    6454.9359    11642.943    1876.2093 
   15600    300.83997   -1134.7313    6374.1048    11666.358    1770.7927 
   15700    297.47721   -1131.7783    6373.6163    11596.982    1866.3736 
   15800    307.03542   -1129.3778    6340.6218    11770.585    1892.1814 
   15900    300.52017   -1123.3344    6458.7612    11755.579    1865.5574 
   16000    298.39531   -1123.2347    6429.7036    11681.227    1786.9969 
   16100    302.27433   -1127.4285    6401.9035    11732.102    1844.2816 
   16200    298.41387   -1127.6714     6436.117      11683.6     1877.602 
   16300    301.50229   -1131.9667    6321.9497    11631.117    1769.8804 
   16400    298.98254    -1132.849    6430.2346    11684.689    1835.7935 
   16500     300.6519   -1135.7628      6471.05    11758.254    1821.3645 
   16600    302.32024   -1137.2571    6409.5109    11730.862    1801.4581 
   16700    297.40372   -1144.3289    6250.5923    11459.838    1820.5185 
   16800    301.91206   -1150.3392    6259.0451    11558.594    1812.3545 
   16900    298.53443   -1150.9048    6509.4629    11736.288    1823.5685 
   17000    301.82446   -1157.7081    6345.3706    11635.679    1803.0813 
   17100    297.16067   -1154.8554    6294.2795    11487.806    1815.6503 
   17200    301.41848   -1161.5385    6461.1248     11738.93     1853.713 
   17300    295.23686   -1169.3972    6355.8916    11493.777    1771.1852 
   17400    303.97258    -1170.045    6298.1429    11622.006    1870.8075 
   17500    301.11467   -1165.3118     6384.826    11652.367     1913.639 
   17600    297.68524   -1170.7081    6195.1941    11384.074    1773.1282 
   17700    298.92426   -1162.9714    6399.8041    11622.891    1879.8653 
   17800    301.39278   -1159.5881    6431.3765    11710.583    1900.4206 
   17900    294.89132   -1168.5195    6383.8057    11515.187    1751.1331 
   18000    302.00538   -1168.2454    6423.2775    11706.914    1826.8753 
   18100    300.05029    -1170.435    6409.8251    11649.504    1858.8933 
   18200    301.28799   -1166.6651     6145.558    11415.448    1766.4918 
   18300    300.32521   -1168.8228    6355.2748    11602.439    1880.7344 
   18400    305.13313    -1156.821    6463.4953    11825.375    1867.8957 
   18500    298.75784   -1148.9051    6449.6425     11683.24    1857.2699 
   18600    301.41788   -1152.9135    6317.6961    11604.113    1802.5453 
   18700    299.43154    -1147.591    6386.6061     11635.91    1825.7068 
   18800    297.42361   -1140.1912    6452.2639    11666.072    1885.4619 
   18900    301.67283   -1130.9781     6347.358    11661.157    1822.7084 
   19000    300.09707   -1135.4092    6327.8158     11603.52    1844.4585 
   19100     298.2315   -1136.2357    6387.6928    11622.715    1823.6034 
   19200    306.06344   -1133.2035     6479.214    11884.586    1848.5342 
   19300    295.43943   -1126.5897    6360.2321    11545.253    1762.5382 
   19400    300.69474   -1119.2807     6400.747    11705.348    1784.4148 
   19500    296.38707    -1123.911    6470.4731    11678.417    1802.7345 
   19600    305.32524   -1123.6381    6434.5054    11833.673    1811.2703 
   19700    298.50574   -1112.6466    6423.2935    11687.764    1805.9553 
   19800    296.15184   -1114.2629    6420.1383    11632.705    1788.8276 
   19900    298.95043   -1114.1589    6474.0311    11746.489    1799.9919 
   20000     295.7414   -1111.6934    6576.1294    11782.497    1861.3005 
   20100    299.71435   -1111.5059    6461.9864    11753.418     1766.344 
   20200    302.75787   -1111.9588    6505.2909    11861.289    1869.9348 
   20300    298.72775   -1116.5325    6332.6011    11597.929    1784.7822 
   20400    302.42211   -1116.3346     6408.165    11752.615    1801.3134 
   20500    300.79946   -1119.2576    6495.9888     11802.85    1816.1583 
   20600    298.20401    -1116.968    6512.5242    11766.227    1809.6252 
   20700    300.83815   -1117.8481    6490.7927     11799.89    1840.1871 
   20800    303.44959     -1116.83    6403.6202    11769.525    1860.8737 
   20900    297.78356   -1121.3618    6368.9662    11609.293    1846.5697 
   21000    302.85754   -1115.6704    6483.0615    11837.478    1888.6951 
   21100    297.81834   -1118.2872    6381.8755     11626.02    1846.5669 
   21200    307.42814   -1122.1873    6342.4938    11788.037    1863.8196 
   21300    300.95736   -1122.2922    6405.7285    11712.929    1841.5925 
   21400     297.6543   -1120.8938    6417.8709    11655.904    1834.0756 
   21500    302.84405   -1124.3014    6453.5465    11799.043    1878.7776 
   21600    297.36656   -1126.2076    6401.2409    11627.814    1832.5111 
   21700    299.69207   -1130.0972     6423.577    11695.941    1940.9809 
   21800    299.38166   -1132.9288    6423.7259    11686.627    1907.6385 
   21900    298.79972   -1127.9491    6505.6357    11761.084    1884.2855 
   22000    297.54892   -1137.0697    6467.5885    11687.195    1837.4319 
   22100    302.00814   -1138.2376    6483.5287    11797.232    1941.1548 
   22200    296.98021   -1142.9402    6338.4184    11540.005    1818.3016 
   22300    298.82272   -1144.4688    6358.5081    11597.928    1848.2906 
   22400    301.06056   -1145.6538    6440.4316    11726.475    1899.7287 
   22500    298.08106   -1144.5656    6410.5975    11634.076    1844.2807 
   22600    300.99241   -1143.3764    6379.0519    11665.917    1814.4151 
   22700     301.4876   -1144.8734    6317.5479    11613.494    1829.7706 
   22800    296.20028   -1149.2963     6424.789    11603.357    1812.8733 
   22900    299.50358   -1146.6689    6382.2711    11634.037     1826.005 
   23000    303.75291   -1149.2011    6315.7238    11655.738     1809.729 
   23100    301.73183   -1144.4628    6335.8154     11637.39    1806.4757 
   23200    300.52378   -1146.9562    6432.6245    11705.898    1831.7386 
   23300    299.81437   -1143.7225    6460.8339    11722.186    1888.2282 
   23400    300.41671   -1147.7663    6359.2793    11629.455    1821.2797 
   23500     299.5951   -1143.9285    6434.3669    11690.828    1816.2163 
   23600    298.55717   -1144.8756    6419.6696     11653.01    1824.6866 
   23700    300.06274   -1136.6306    6360.0343    11633.784    1837.4557 
   23800    294.99762   -1135.5847    6365.4711    11532.058    1878.6539 
   23900    300.30678   -1138.1859    6416.4441    11693.852    1874.4359 
   24000    297.05033   -1131.0658    6386.9438    11601.902    1828.0636 
   24100    303.36206   -1130.9136    6337.1164    11687.068    1827.8884 
   24200    299.36061   -1131.8475    6493.3848    11756.918    1850.7034 
   24300    298.26123   -1125.3911    6474.8914    11721.394    1723.5902 
   24400    303.98159   -1125.4764    6539.1785    11907.802     1813.874 
   24500    298.23626   -1119.8674    6508.8876     11760.38    1773.3018 
   24600    302.91404   -1116.5325     6370.931    11725.692    1832.8384 
   24700    298.47141   -1117.6549       6331.4    11590.129    1803.8353 
   24800    299.00442   -1117.2133    6481.6566    11752.214    1836.5816 
   24900    302.18012   -1118.0856    6549.2653    11886.794    1902.7039 
   25000     300.4471   -1120.4855    6547.4753    11845.581    1856.3562 
   25100    299.34953   -1118.1316    6459.7708    11736.783    1871.0962 
   25200    300.27121   -1126.3042     6237.594    11526.124    1774.3322 
   25300    297.50812   -1130.4784    6444.5225    11669.849    1847.5529 
   25400    303.28839   -1137.8016    6489.6596    11831.149    1874.2581 
   25500    299.98589   -1142.9868    6422.5774    11688.329    1840.7214 
   25600    296.46395   -1154.6108    6361.7109    11540.597    1810.1538 
   25700    304.29067   -1153.3629    6406.3752    11753.716    1775.9926 
   25800    299.36373   -1153.9456    6421.1447    11662.646    1722.8868 
   25900    301.03874   -1159.3346    6310.2442     11582.14    1785.3829 
   26000    303.26861   -1160.2747    6301.9629    11620.557    1794.1531 
   26100    302.21062   -1167.8746      6373.59    11661.982    1788.2844 
   26200    299.00054   -1165.6607    6377.5042    11599.531     1801.358 
   26300    299.86106   -1169.1725    6401.6487    11638.548    1790.6598 
   26400    301.71691   -1171.8854    6400.4961     11674.33    1776.2047 
   26500    295.20422   -1175.1683    6423.4814    11554.898    1876.1752 
   26600    303.75684   -1183.8983    6345.4014    11650.802    1912.1087 
   26700    299.99569   -1175.8998     6427.756    11660.804    1896.7832 
   26800     303.1538   -1171.7577    6437.6693    11742.327    1840.7152 
   26900    295.65481   -1162.8087    6466.0706    11619.473    1780.4073 
   27000     301.1016   -1170.8743    6411.4261    11673.125    1751.9592 
   27100    300.00392   -1167.6938    6290.4106     11531.84    1783.5235 
   27200    299.32657   -1158.8656    6275.1111    11510.898    1807.8075 
   27300    299.50768   -1156.0503    6473.7413    11716.213    1889.0021 
   27400    299.31801   -1157.6759    6368.7489    11605.543    1806.8415 
   27500     296.4216   -1155.6917    6414.1356    11591.037    1864.0404 
   27600    302.00129   -1142.2327     6435.393    11744.955    1882.5462 
   27700    302.92258   -1140.1249    6457.3809    11788.732    1866.2393 
   27800    296.97711   -1136.1333    6473.4544    11681.781    1855.2553 
   27900     298.2103   -1136.9992    6441.1876    11674.994    1794.6504 
   28000    301.30645   -1124.8477    6408.6072    11720.709    1804.5521 
   28100    297.91141   -1122.2898    6443.8853    11686.016    1788.3184 
   28200    299.27955   -1124.8099    6567.0634    11835.902    1855.4278 
   28300    301.02588   -1124.7294    6404.7816    11711.008     1814.602 
   28400    293.90215   -1121.3129    6411.2368    11568.692    1775.1773 
   28500     308.5635   -1125.7628    6465.3289    11931.552    1789.8863 
   28600    301.53526   -1123.7046    6562.7797    11880.913    1795.5931 
   28700      294.385   -1124.7307    6432.7946    11597.148    1756.8727 
   28800    299.93243   -1124.4385     6410.013    11693.171    1838.2302 
   28900    291.16912   -1130.8744    6432.7867    11522.294    1798.4348 
   29000    302.17488    -1134.484    6475.9782    11796.997    1912.0789 
   29100    300.49912   -1136.8419    6444.1978    11727.058    1830.3381 
   29200    299.43342   -1137.3689    6435.9319    11695.499    1826.9279 
   29300    298.38787   -1140.2887    6423.7974    11658.108    1878.8867 
   29400    303.18665   -1139.1227    6380.5398    11718.535    1854.1198 
   29500    299.50794   -1149.7007    6310.8186    11559.645    1776.2071 
   29600    305.75416   -1139.8035    6301.9516    11694.117    1832.7976 
   29700    295.70072   -1140.3817    6457.3053    11634.116    1855.0677 
   29800    301.63922   -1148.2963    6394.4587    11690.221     1806.165 
   29900    296.29446   -1150.7767    6385.1001      11564.2    1848.3743 
   30000    296.30974   -1152.0198    6365.1522    11543.335    1748.1325 
   30100    304.02423   -1153.8396     6521.639    11862.811     1804.493 
   30200    299.12069   -1154.4869    6452.2837    11688.051    1846.1825 
   30300    302.86561   -1156.8755    6385.2926    11698.676    1782.8759 
   30400     299.5476   -1155.3496     6403.514    11647.539    1811.9548 
   30500    299.43145   -1150.7779    6492.4667    11738.582    1925.7948 
   30600    303.85939    -1154.557    6376.1073     11713.04    1847.1373 
   30700    299.02319   -1150.5092    6403.4913    11641.154    1838.9545 
   30800    304.32188   -1149.5509     6415.668    11767.487    1900.6828 
   30900    302.35298   -1151.0153    6423.4127    11731.705    1856.0439 
   31000    300.52703   -1149.9305    6382.0843    11652.453    1803.9986 
   31100    298.70429   -1148.9993    6350.8644    11583.224    1783.3917 
   31200     304.5086   -1146.1009    6558.0014     11917.26     1904.918 
   31300    294.74059   -1138.8312    6458.6101    11616.459    1838.8714 
   31400    297.85171   -1143.2356    6313.5195    11533.429     1858.797 
   31500    301.67811   -1141.2855    6326.7176    11630.322     1871.384 
   31600    297.61262    -1133.138    6413.1783    11638.077    1859.5847 
   31700    299.30768   -1138.0139    6474.4731    11730.709    1916.9601 
   31800    300.82653   -1136.9364    6389.3969    11679.158    1879.7409 
   31900    303.43504   -1134.5323    6438.7678     11786.66    1884.7812 
   32000    298.13423   -1138.2051    6335.4192    11566.395    1872.2397 
   32100    302.33385   -1136.4656    6547.9827    11870.416    1916.7114 
   32200     300.4035   -1134.6368    6469.7858    11752.809    1879.8614 
   32300    295.85466    -1134.011    6517.4999     11703.97     1865.946 
   32400    299.17083   -1137.6997    6361.5575    11615.183    1841.5821 
   32500     298.7172   -1139.8093    6374.9034    11616.729    1829.3741 
   32600    300.16036   -1138.5897     6479.763    11753.639    1859.5229 
   32700    298.44551   -1138.3979    6427.4921    11664.925    1920.7849 
   32800    296.22107   -1134.1679    6448.8159    11642.957    1863.1314 
   32900    304.52871   -1139.2764    6464.7064    11831.219    1890.3984 
   33000    299.67316   -1143.9269    6382.2108    11640.341    1874.9155 
   33100    298.13523   -1144.0953    6340.7205    11565.827    1817.8233 
   33200    294.65389   -1150.2972    6505.8301    11650.361    1790.6145 
   33300    301.05907    -1159.581    6408.6715    11680.756     1767.567 
   33400    300.63162   -1159.4022    6377.2979    11640.429    1831.9877 
   33500    298.87837   -1157.4876    6420.4122    11648.003    1868.4537 
   33600    300.31377   -1165.2053    6416.6483    11667.186    1908.8671 
   33700     303.4821   -1164.8222    6317.8891    11636.496    1874.6796 
   33800    298.41213   -1166.5657    6410.5102    11619.062    1912.9916 
   33900    304.16811    -1162.983    6437.8618    11772.964    1904.4233 
   34000    304.65573   -1164.8914     6383.242    11726.853    1873.1165 
   34100    300.98059   -1171.4308    6370.8264    11629.384     1852.204 
   34200    295.52274   -1169.8621     6425.256    11568.784    1904.4121 
   34300     302.3901   -1169.0159    6464.3704    11755.455    1918.4345 
   34400    297.05952   -1175.2771    6391.8936    11562.837    1833.8418 
   34500    301.92421    -1171.304    6382.4466     11661.29    1825.9264 
   34600    299.82443   -1168.5256    6334.9995    11571.763    1775.9993 
   34700    302.11928   -1165.9507     6364.256     11652.62    1777.1457 
   34800    294.20792   -1166.3531    6388.5566    11507.504    1795.5926 
   34900    301.79615   -1162.3338    6441.0534    11726.131    1874.3752 
   35000    298.94291     -1163.12    6356.4402    11579.777    1819.8423 
   35100    299.18159   -1158.5987    6327.1252    11560.082     1830.629 
   35200    294.29902   -1157.4479    6358.0201    11487.819    1855.6038 
   35300    305.58896   -1157.0538    6435.8189    11807.204    1855.2361 
   35400    300.16621   -1144.7675    6434.5325    11702.356    1867.8289 
   35500    295.46754   -1144.9178    6393.9103    11561.203    1824.0633 
   35600    301.84089   -1142.5677    6456.8762    11762.676    1846.4416 
   35700    298.03927   -1138.4226    6478.7979    11707.527    1772.5652 
   35800    301.25875   -1133.4295     6525.867    11828.368    1830.9829 
   35900     298.9281   -1133.3668    6357.3526    11610.126    1815.5499 
   36000    306.04712   -1129.9145    6590.3624    11998.675    1898.3073 
   36100    294.32007   -1130.1152     6394.653    11552.235     1798.765 
   36200    301.73778   -1130.2225    6414.7204    11730.663    1793.1994 
   36300    300.38733   -1136.9387    6529.7724    11810.148    1803.6194 
   36400    297.52802   -1136.0192    6382.6009    11602.811    1750.7426 
   36500    299.69712   -1138.8576    6534.5242    11798.236    1844.5285 
   36600     297.7924   -1142.0343     6409.823    11629.666    1847.7009 
   36700    300.41484     -1141.01    6374.2813    11651.173     1840.721 
   36800    300.48513    -1145.882    6503.7272    11777.249    1930.2677 
   36900    295.19651   -1139.7198    6433.9917    11600.692     1817.692 
   37000     297.8319   -1150.5247    6427.9566    11640.154    1853.3177 
   37100    299.52958    -1152.104     6356.356    11603.242    1892.9647 
   37200    302.13236   -1151.3705    6323.8138    11627.037     1908.668 
   37300    300.84881   -1160.1058    6385.3519    11652.419    1930.9519 
   37400     297.8404   -1160.5378    6467.3017    11669.667    1911.3908 
   37500    300.36681    -1158.004    6387.0927    11645.965    1868.8152 
   37600    298.62091   -1161.7165    6301.0147    11518.876    1900.0333 
   37700    303.76738   -1159.2044     6480.108    11810.428    1955.0581 
   37800    296.23589   -1164.7778     6361.477    11525.324    1870.8382 
   37900    301.01523   -1166.1968    6353.1071    11617.639    1884.8649 
   38000     297.7347   -1158.0202    6488.0067    11690.631    1934.7128 
   38100    298.16238   -1160.2614     6343.053    11552.573    1857.6773 
   38200    301.90115   -1169.6542    6390.8822    11670.883    1908.0969 
   38300     300.1298   -1164.2534    6428.2738    11675.833    1904.4099 
   38400    300.02888   -1161.6327    6500.1824    11748.206    1878.2593 
   38500    301.08551   -1157.8728    6428.5514    11702.909    1807.9758 
   38600    303.06877   -1156.8622    6439.2977    11757.035    1840.4461 
   38700    298.74291    -1154.755    6511.5292    11738.958    1865.7627 
   38800    302.18622   -1148.5464    6455.6793    11762.878    1800.7897 
   38900    297.02984   -1142.9997    6408.6986    11611.286     1910.752 
   39000    300.33115   -1139.9302    6429.8388    11706.023    1930.1849 
   39100    298.20578   -1137.3165    6409.5422    11642.935    1794.0078 
   39200     300.1914   -1137.8556    6514.3404    11789.613    1780.8068 
   39300    298.73751   -1139.0277    6551.5124    11794.553    1998.0625 
   39400    296.37838   -1140.5061    6384.7305    11575.894    1881.0602 
   39500    301.04063   -1141.0246     6366.218    11656.464    1867.9524 
   39600    305.30824   -1135.8687    6482.2175    11868.791    1940.4633 
   39700    301.24597   -1139.1808    6587.2675    11883.745    1831.1271 
   39800    296.19842   -1139.3703    6484.2944    11672.749    1845.4915 
   39900    299.47297   -1141.2504    6360.6649    11617.195    1904.3065 
   40000    303.32376   -1143.7209    6427.0518    11763.378    1942.5979 
   40100    297.52021   -1144.3942     6389.146    11600.814    1925.2578 
   40200     302.2395   -1141.7148    6446.3611    11761.529    1983.6433 
   40300    298.80964    -1154.053    6446.4336     11675.99    1947.8724 
   40400    302.65091   -1160.6726    6382.5422    11687.542     1890.151 
   40500    298.78229   -1159.6674    6426.1786    11649.536    1888.6691 
   40600    304.72384   -1165.8817     6397.769    11741.845    1830.0176 
   40700    301.53948   -1159.5117    6396.9707    11679.387    1844.6033 
   40800    300.99146    -1159.547    6326.6919    11597.366    1809.0177 
   40900     293.5214   -1167.4545    6355.2292    11458.409    1833.0743 
   41000    306.25559   -1162.3028     6439.049    11819.427     1921.948 
   41100    298.06698   -1169.7564    6433.3516    11631.339    1857.4562 
   41200    306.71944   -1171.6284    6475.2827    11856.244    1950.5063 
   41300    299.09402    -1176.066    6415.7517    11629.371    1886.5883 
   41400    300.24556   -1177.4089      6382.09    11618.967    1946.4498 
   41500     308.3531   -1175.0942    6392.1922    11804.589    1923.1562 
   41600    297.28511   -1175.6916    6463.9821    11639.331    1923.3458 
   41700    300.81938   -1172.1329    6448.0934    11702.505    1884.0565 
   41800    299.00536    -1159.274    6378.4401    11606.957    1845.8572 
   41900    300.72227   -1165.4697     6444.275    11703.275     1902.529 
   42000    300.44568   -1164.5949    6289.5508    11543.517    1834.5877 
   42100     298.2591   -1165.0298    6340.5903    11547.409    1776.1461 
   42200    306.07352   -1168.4135    6548.7713    11919.149     1880.799 
   42300     298.0725   -1155.9668    6598.4698    11810.365    1881.7527 
   42400    303.49652   -1154.0621    6369.8876    11699.563    1824.7035 
   42500    296.66502   -1155.6689    6329.8713    11511.995    1880.2181 
   42600    303.56882   -1155.5007    6469.3476    11799.129    1946.2362 
   42700    297.49108   -1153.0163    6397.5179    11599.942    1897.9952 
   42800    301.61731   -1151.3222     6413.048    11705.317    1899.1481 
   42900    301.86084   -1154.5461    6434.3605    11728.608    1953.6983 
   43000    295.72299   -1151.6346    6394.9281    11560.961    1865.4296 
   43100    301.62118   -1153.0318    6501.8754    11792.517    1861.0638 
   43200    300.83328   -1150.7446     6452.322    11728.419    1835.8304 
   43300     295.0976   -1152.6943     6373.821    11525.434    1823.0502 
   43400     303.5269   -1148.9726    6457.2052    11792.619    1869.1824 
   43500    300.77706   -1153.1607    6439.5678    11712.048    1876.3412 
   43600    300.15003   -1155.0868    6436.5908    11693.749    1904.4572 
   43700    301.45489   -1159.1864    6474.4604    11755.395    1916.1374 
   43800    303.71477   -1159.3254    6304.4639    11633.539    1802.9573 
   43900    300.54526   -1159.5805    6438.4974    11699.605    1904.7185 
   44000    302.62456   -1159.4298    6481.6152    11787.295    1885.4926 
   44100    298.01554   -1161.5259    6363.0336    11568.152    1875.9051 
   44200    300.05936   -1157.6322    6361.7927    11614.468    1871.3777 
   44300    298.58508   -1157.4385    6579.5751    11800.949    1918.3237 
   44400    299.28472   -1161.4772    6397.5792    11629.861    1848.6708 
   44500    302.52696   -1160.0878    6295.9427    11598.879    1865.3814 
   44600    299.89083   -1151.6367    6422.8441    11677.915    1891.4642 
   44700    302.34786   -1160.3348    6488.0543    11786.918    1908.4347 
   44800     299.5313   -1165.7065    6469.3932    11702.713    1891.6762 
   44900    296.55435   -1160.2401    6492.8555    11668.044    1844.1449 
   45000    304.21105   -1155.4852    6525.5993    11869.116    1907.2413 
   45100    295.16967   -1156.8382    6348.5322    11497.541    1840.4969 
   45200    298.54714   -1155.8338    6385.6946    11607.862    1855.0067 
   45300    305.32961   -1150.8821    6429.7533     11801.77    1835.8142 
   45400    299.95668   -1153.1557    6407.1439    11662.102    1863.9743 
   45500    297.00055   -1157.6549    6396.6179    11583.924    1863.1591 
   45600    301.42044   -1154.1185    6434.7173    11719.984    1833.3147 
   45700    301.48008   -1158.1668    6428.4044    11710.897    1868.5706 
   45800    295.28016   -1158.3547     6377.626    11527.479    1827.2261 
   45900    302.09039   -1159.6127    6484.2047     11778.29    1878.2414 
   46000     296.5514   -1157.6088    6503.2479    11681.005     1925.176 
   46100    299.44662   -1151.4281    6301.9787    11547.768    1878.8996 
   46200    298.50509   -1146.4453    6470.0562    11700.714    1904.1965 
   46300    301.84244   -1148.4384    6393.5496    11693.512    1893.8827 
   46400    295.32525    -1154.673    6453.9866    11608.484    1925.8409 
   46500    298.72557   -1157.3026    6381.6031    11606.114     1820.655 
   46600    300.98449   -1159.3777    6397.7461     11668.44    1804.2544 
   46700    302.47369    -1160.059    6573.5898    11875.417    1944.1366 
   46800    298.34044   -1157.8598    6301.0929    11516.819    1748.1352 
   46900    299.03195   -1156.4556    6346.0598    11577.963    1762.1527 
   47000    304.96546   -1163.1633    6460.4382    11812.394    1945.6433 
   47100    296.31897   -1159.3899    6367.4822    11538.492    1864.8875 
   47200    299.85955   -1158.2368    6366.2641    11614.066    1876.1131 
   47300    304.22533   -1158.3861    6390.8323    11731.754    1999.2198 
   47400    299.69398    -1160.863    6405.2762    11646.915    1880.9433 
   47500    299.17356   -1163.3426    6436.2015    11664.243      1834.52 
   47600    298.84368   -1162.7028    6324.5834    11546.217      1872.85 
   47700    301.33966   -1166.4756    6503.0065     11774.19    1894.7964 
   47800    307.89589   -1163.0769     6453.634     11868.28    1887.1591 
   47900    298.04622   -1170.5449    6441.9236    11638.679    1934.4375 
   48000    300.42318   -1164.3045    6472.5053    11726.281    1974.4692 
   48100     300.6558   -1161.6808    6371.3012     11632.67    1851.0056 
   48200    296.18723   -1166.3495    6348.9193    11510.156    1930.4934 
   48300    304.97575   -1164.9674    6437.1724    11787.544    1957.2199 
   48400    296.97383   -1162.4508    6489.5075    11671.447    1893.0708 
   48500    302.60973   -1167.8344    6404.9782    11701.936    1879.1181 
   48600    299.44163   -1169.3746    6430.1907    11657.927    1966.2867 
   48700    297.65375   -1165.6846    6406.2927    11599.524    1864.9326 
   48800    299.51657   -1165.5239    6422.4093    11655.597    1833.4921 
   48900    302.47347    -1160.104    6405.6847    11707.462    1990.6578 
   49000    297.20296   -1154.9958    6412.8895    11607.179    1930.2529 
   49100     302.6579   -1155.7827    6398.5409     11708.58    1941.4549 
   49200    296.34778   -1162.0472    6361.4412     11530.41    1911.4494 
   49300    301.00406   -1162.9238    6520.5305    11788.097    1912.7615 
   49400    302.31666   -1162.0411     6426.705    11723.195    1852.1735 
   49500    302.29987   -1161.3408    6446.9157    11743.748    1911.1675 
   49600    298.83681   -1163.3209    6356.8903    11577.759    1864.7922 
   49700    296.53373   -1164.8488    6402.2029    11572.342    1851.7319 
   49800    297.25052   -1155.3433    6502.7132    11697.671    1882.3375 
   49900    297.29651   -1156.9499    6445.4785    11639.812    1895.8387 
   50000    304.29503   -1154.4506    6324.5855    11670.931     1847.827 
   50100    298.74601   -1159.3766    6410.0971    11632.971    1850.7581 
   50200    300.98967    -1157.894    6438.6357    11710.924    1913.4046 
   50300    300.35178   -1156.9319    6510.2841    11769.907    1991.5028 
   50400    305.31315   -1161.2895    6448.9669    11810.224    1917.1349 
   50500    302.15042   -1162.2352    6406.4221    11699.167    1899.7794 
   50600    295.08935   -1161.3423     6389.977    11532.766    1897.2207 
   50700      303.931   -1159.6359     6376.826     11710.21    1891.2913 
   50800    298.79527   -1158.6224    6508.3591    11733.039    1863.8324 
   50900    298.10044    -1157.853    6532.7662    11743.372    1903.2222 
   51000    297.74733   -1164.7011    6338.1083    11534.322    1841.0148 
   51100    302.04971   -1162.8482    6406.1649    11696.145    1867.2772 
   51200    298.30873   -1168.8161    6445.5312    11649.623    1891.7263 
   51300    305.09108   -1164.2351    6416.3264    11769.894    1927.5887 
   51400    297.35488   -1161.4678     6385.183    11576.246    1856.3207 
   51500    309.07847   -1164.7577    6468.2649    11906.494    1949.0473 
   51600    299.29641   -1164.0451    6384.2703    11614.234    1904.7449 
   51700    297.57169   -1159.6178    6370.7031    11568.248    1846.0722 
   51800    306.71285      -1168.2    6490.4558    11874.705    1958.8823 
   51900    294.33727   -1165.2448    6381.0024    11503.822    1858.4737 
   52000    299.37125   -1161.9371    6334.8065    11568.477    1842.9519 
   52100    302.56311   -1163.0396    6380.1914    11680.949    1894.5782 
   52200    294.53144   -1161.9169     6463.927    11594.222    1940.9329 
   52300    298.50985   -1163.2522    6381.2699    11595.223    1842.1169 
   52400     302.3733   -1163.5393    6458.2768    11754.479    1916.5891 
   52500    294.13585   -1162.3063    6472.6873    11594.142    1915.3191 
   52600    302.95891   -1161.9239    6392.3687    11702.697    1852.4092 
   52700    297.13247   -1161.1689    6354.6095     11541.22    1820.0376 
   52800    303.66258   -1163.2416    6466.2188    11790.262    1949.2978 
   52900    299.28339   -1161.0781    6464.7621    11697.414    1890.2251 
   53000     301.3195   -1158.3231    6475.3709    11754.277    1947.8344 
   53100    302.74377    -1159.914    6348.7066    11656.449    1870.9666 
   53200    301.31724   -1158.7466    6312.4141    11590.848    1827.4915 
   53300    298.51825   -1158.5712    6359.0858    11577.899    1861.4705 
   53400    302.86664   -1162.4705    6527.8441    11835.655    1918.1407 
   53500    295.22568    -1158.934    6500.4709     11648.58    1843.1754 
   53600    301.09066   -1165.0494    6418.3571    11685.648    1815.7419 
   53700    296.26522   -1165.3681    6404.6095    11568.493    1882.6491 
   53800    298.59358   -1161.9879    6411.7327    11628.738    1876.1888 
   53900    299.83435    -1161.774     6380.072    11623.799     1864.024 
   54000    303.39806   -1156.0971    6391.8985    11717.435    1939.9149 
   54100    298.78688   -1159.0641    6423.4124    11647.472    1898.0328 
   54200    299.88248   -1156.0557    6458.7644    11709.238    1826.0431 
   54300    299.95937   -1159.4353    6394.9874    11643.724    1862.6071 
   54400    300.28465   -1164.8333    6497.9097    11748.197    1955.8652 
   54500    299.94933   -1161.9583    6376.7147    11622.714    1831.2694 
   54600    299.93402   -1165.7277    6337.4966    11579.399    1789.2122 
   54700    299.61265   -1163.0933    6596.3317    11834.003     1949.758 
   54800    298.95752   -1160.9447    6463.9197    11689.744    1905.5909 
   54900    303.21348   -1159.6343    6333.4012    11651.458    1786.5718 
   55000    294.77772   -1156.9267    6438.0054    11578.552    1902.0987 
   55100    297.51664   -1158.2475    6457.2267    11654.966    1923.0464 
   55200    299.58086   -1158.6657    6363.7346    11605.154    1833.4112 
   55300    298.43937   -1158.6259    6455.4556    11672.529    1910.8501 
   55400    305.77377   -1162.6163    6525.4774    11895.249    1943.3588 
   55500    296.19284   -1158.4938    6403.1243    11572.336    1834.6586 
   55600    302.26436   -1158.4757    6353.5035    11652.442    1850.6528 
   55700    300.39237   -1163.4931     6403.757    11657.686    1902.4745 
   55800    298.28137   -1162.0166    6431.9836    11642.291    1848.2863 
   55900     299.6702   -1159.8698    6495.1145    11737.239    1866.2302 
   56000    300.91459   -1158.0865    6497.6418    11768.134    1932.4021 
   56100    298.46779   -1157.8196    6397.2309    11615.718    1929.3902 
   56200     297.8813   -1157.9334    6370.8745    11576.718      1917.99 
   56300    301.42426    -1151.046    6410.7734    11699.194    1868.1716 
   56400    298.38437   -1159.3182    6495.8219    11711.028    1944.0637 
   56500    298.01507   -1158.5492    6388.1522    11596.238    1856.7305 
   56600    300.72688   -1159.0506    6373.1761    11638.694     1920.817 
   56700    296.78781   -1163.1636    6449.1929    11626.446    1905.0885 
   56800    299.86227   -1159.9652    6410.4909    11656.623    1798.2537 
   56900    299.80761   -1163.4747    6429.2625    11670.717    1888.9966 
   57000    303.58788   -1160.3026    6512.6742    11838.061    1975.5531 
   57100    300.91743   -1161.2702    6410.8553    11678.224    1879.0292 
   57200    296.46575   -1156.4052     6356.662    11533.793     1929.311 
   57300    306.61922   -1159.3389    6465.6064    11856.717    1962.0989 
   57400    299.51799   -1164.7451    6515.6677    11749.665    1898.6609 
   57500    299.29142   -1162.5048    6409.0056    11640.403    1857.0268 
   57600    302.85557   -1166.8847    6452.8849    11756.045    2007.5311 
   57700    297.49721   -1170.4549    6313.5842    11498.701    1897.9101 
   57800    299.71888   -1169.8971    6410.6567    11643.794    1866.1794 
   57900    302.91888   -1163.6936    6435.0949    11742.799    1887.7471 
   58000     299.7167   -1155.3163    6550.1504    11797.821    1885.1077 
   58100    300.07362   -1158.7213    6347.0756    11598.967    1785.6999 
   58200    299.55412   -1162.0939    6425.2493     11662.67     1956.783 
   58300    299.82262   -1159.9644    6294.9759    11540.262    1864.3396 
   58400    300.21367   -1162.4244     6443.154    11694.334    1821.4958 
   58500    300.68194    -1167.694    6465.4188    11721.333    1877.6917 
   58600    299.63341   -1163.7179    6485.3409    11722.831    1958.3086 
   58700    301.82903   -1163.0859    6489.1168    11774.145    1904.5779 
   58800    300.54902   -1157.6732    6348.5498    11611.645    1891.0737 
   58900     300.0004   -1161.8417      6357.56    11604.767     1982.959 
   59000    300.77471   -1158.1722    6442.4882    11709.906    1915.6809 
   59100    301.33308   -1155.1329    6512.7386    11795.124    1950.3068 
   59200    305.70209   -1157.7851    6364.0212    11737.092     1896.344 
   59300     297.9147   -1150.1358    6435.2898    11649.645    1898.5791 
   59400    300.59825   -1153.1837    6431.0129    11699.649    1893.5428 
   59500    305.86819   -1151.1986    6393.2808    11776.487      1925.21 
   59600    297.40473   -1148.7985    6423.8503    11628.648    1899.1561 
   59700    299.78994   -1151.3333    6481.8116     11735.03    1906.1772 
   59800    292.58906   -1154.5871    6485.4416    11581.571    1925.6795 
   59900    301.88947   -1156.7338    6459.5079    11752.179     1973.336 
   60000    297.84852   -1156.2931    6360.8027    11567.586    1894.4262 
   60100    298.03301   -1156.9374    6501.4499    11711.531    1910.8151 
   60200    294.83756   -1152.5024    6454.9431    11601.193    1878.8607 
   60300    301.93561   -1158.6852     6418.695    11710.401      1926.36 
   60400    297.56856   -1158.4017    6365.6112    11564.305    1872.9509 
   60500     297.5157    -1159.438    6434.1139    11630.642    1895.5652 
   60600    301.36552   -1164.5032    6515.2417     11788.95     1895.769 
   60700    300.85993   -1166.1758    6404.3545    11665.589    1819.7685 
   60800    296.45414   -1151.4134     6422.376     11604.25    1813.9379 
   60900    297.90197   -1167.8624    6410.6004    11606.956    1832.8684 
   61000     301.7915   -1169.0783     6464.852    11743.086    1880.2095 
   61100    299.13602   -1165.1466    6423.7902    11649.226    1901.6433 
   61200    300.97237   -1163.5465    6393.2052    11659.472    1913.6406 
   61300    298.88321   -1167.4714    6362.9643    11580.674    1837.5644 
   61400    300.49945   -1164.4878    6414.7219    11669.944    1922.3564 
   61500    297.34468   -1175.2165    6445.6703    11622.767    1930.0612 
   61600    301.16154   -1168.2683    6462.9609    11728.547    1892.5846 
   61700    299.01268   -1169.5996     6342.285    11560.633    1890.7058 
   61800    299.97585   -1173.8055    6427.9142    11662.632    1964.8583 
   61900    305.29003   -1174.0194    6377.4888    11725.522    1852.0811 
   62000    296.65354   -1164.4424    6508.3334    11681.439    1876.8671 
   62100     302.1428   -1168.0565     6341.226    11627.987    1914.2663 
   62200    295.58465   -1168.7526    6402.5582    11548.518     1963.097 
   62300    295.13587   -1155.9681    6460.5556    11609.713    1863.0926 
   62400    301.73961   -1160.8416    6403.4743    11688.837    1858.6341 
   62500    298.34071   -1160.0645    6338.3148    11551.842    1848.1885 
   62600    300.92604   -1162.1387    6383.4673    11650.152    1818.7139 
   62700    295.78778   -1160.8511    6499.3181    11657.519     1855.858 
   62800     302.1283   -1155.6466    6419.8496    11718.711    1811.9421 
   62900    294.84746   -1161.1433    6404.1904    11542.011    1823.8123 
   63000    303.75206   -1154.8899    6407.8858    11742.193    1845.2844 
   63100    298.61808   -1154.4571    6446.2835    11671.343    1906.1256 
   63200    304.71104   -1148.2587    6426.7344    11788.159    1928.7114 
   63300    298.08733   -1153.4329    6405.4083    11620.154     1885.583 
   63400    300.24787   -1151.1671    6513.4136    11776.582    1964.0067 
   63500    298.85084   -1156.5998     6513.089    11740.979    1871.8729 
   63600    306.12167   -1158.9706    6399.6371    11780.486    1898.1864 
   63700     297.7873   -1161.2975    6376.5404    11577.012    1837.7596 
   63800    303.26922    -1160.611    6537.9274    11856.198    1900.1773 
   63900    297.77183   -1158.4376     6391.125    11594.126    1825.1345 
   64000    301.04812   -1156.7277    6307.4074    11582.111    1858.7996 
   64100    299.55997    -1155.718    6434.6752    11678.596    1940.5997 
   64200    295.09747   -1155.1002    6449.8849    11599.089    1892.1367 
   64300    300.55536    -1156.185    6446.5605     11711.28    1972.7113 
   64400    297.82769   -1159.9621    6362.8078    11565.477    1867.3688 
   64500    301.45266   -1162.3533    6453.1577    11730.878    1897.6665 
   64600    300.60627   -1167.0909    6365.2845    11620.185    1890.6522 
   64700    295.91549   -1163.9186    6525.0844    11682.946    1957.3955 
   64800    299.39437   -1174.5133    6367.7261    11589.314    1820.0986 
   64900    303.62388   -1173.9945     6401.538    11714.002    1842.1299 
   65000    297.83055   -1172.2271    6531.7566    11722.222    1946.5095 
   65100     301.7495   -1169.9449    6397.3295      11673.8    1881.9468 
   65200    301.25973   -1164.0641    6343.8867    11615.775    1864.9196 
   65300    299.92394   -1161.7546    6436.1081    11681.768    1947.4115 
   65400    304.89782   -1165.7171    6513.5678    11861.525    1975.3427 
   65500       304.45   -1165.5176    6411.4687    11750.058    1901.9169 
   65600    300.58528   -1168.0771    6393.5168    11646.983    1910.4982 
   65700    299.03201   -1168.1934    6414.6906    11634.857    1853.8057 
   65800    302.16502   -1166.0695    6418.5668    11707.789    1867.5914 
   65900    298.49374   -1162.7554    6441.7707    11655.876    1907.1085 
   66000    301.04022   -1165.2963    6447.3429    11713.309    1931.0954 
   66100    296.57278   -1162.8448    6375.2982    11548.276    1789.4816 
   66200    294.04659   -1158.6905    6515.7299    11638.894    1835.5493 
   66300    302.53215   -1162.1223    6411.9175     11712.93    1886.3781 
   66400    294.07014   -1158.8369    6415.0217    11538.542    1864.5817 
   66500     300.8299   -1159.9187    6534.3025    11801.153    1920.9779 
   66600    302.39221   -1153.8004    6428.2077    11734.553    1924.0542 
   66700    297.88126   -1157.8872    6431.1206    11637.009    1900.9551 
   66800    301.61889   -1156.8734    6493.0986     11779.85    1860.7684 
   66900    296.11375   -1159.1811    6376.2875    11543.122    1837.5775 
   67000    301.31238    -1151.952    6379.6653     11664.79     1851.311 
   67100     304.9429     -1157.71    6547.2096    11904.137    1878.6252 
   67200    297.57765   -1159.6522    6442.7966    11640.434    1794.0831 
   67300    304.82768   -1162.8624    6366.8152    11716.129    1917.2885 
   67400     295.3351   -1159.2812     6452.267    11602.367     1870.938 
   67500    303.20964   -1161.2782    6501.7337    11818.064    1886.9854 
   67600    304.45541   -1158.9303    6392.2815    11737.574    1990.7922 
   67700     297.5183   -1161.1892    6370.4537    11565.287    1903.9907 
   67800    303.59738   -1156.9738    6384.7769    11713.695    1854.9345 
   67900    295.01177   -1165.5329    6425.7744    11562.715    1898.7696 
   68000    298.75134    -1165.133    6371.2405    11588.472    1903.0828 
   68100    298.04979    -1168.702     6445.028    11643.702    1852.1094 
   68200    301.82374   -1173.3039    6447.9473    11722.644    1817.7018 
   68300    297.46097    -1170.103    6457.3137    11642.008    1873.9199 
   68400    296.82175   -1170.7114    6377.0932    11547.523    1839.6675 
   68500    299.62202   -1171.4148    6398.5209    11628.071    1895.4462 
   68600    301.80951    -1164.635    6457.0397    11740.102    1925.0569 
   68700    301.54048   -1163.2654    6416.0311    11694.716    1804.1442 
   68800    300.25189   -1166.0341    6468.2238    11716.611    1861.5109 
   68900    301.03052   -1163.4485     6349.088    11616.695    1884.2338 
   69000    298.71503   -1167.5956    6354.3154    11568.308    1891.9057 
   69100    302.90818   -1164.4036    6467.4602    11774.225     1881.329 
   69200    301.09144   -1166.3424    6461.1892    11727.203    1848.1842 
   69300    300.05397    -1169.582    6537.8751    11778.486    1928.2012 
   69400    300.59351     -1165.58    6416.1787    11672.318    1875.5592 
   69500    297.25915   -1161.3343    6337.4037    11526.555    1862.2779 
   69600     301.9141   -1158.4608    6319.3856    11610.856    1912.4629 
   69700    296.58702   -1156.4892    6513.9241    11693.561    1970.0494 
   69800    302.63636   -1154.5723    6414.0344    11724.824    1881.0576 
   69900    299.51256   -1161.0406    6445.9125    11683.498    1957.9801 
   70000    300.50938   -1164.2571    6320.3449     11576.01    1844.9279 
   70100    294.69178   -1162.5283     6516.841     11649.95     1893.915 
   70200    300.67715   -1164.3795    6453.6444    11712.771    1862.7834 
   70300    299.34672   -1164.7624    6487.0295     11717.35    1907.9081 
   70400    300.04633   -1161.6193    6431.8379    11680.248    1831.8413 
   70500     299.9841   -1164.2236    6373.8006    11618.277    1876.3579 
   70600    303.16412   -1157.6283    6414.9069    11733.915    1978.4881 
   70700    297.08447   -1157.3403    6509.8378    11699.251    1868.2745 
   70800    300.25991   -1156.5844    6457.9187    11715.926    1883.0115 
   70900    300.87526   -1164.1093    6353.4996    11617.129    1914.2532 
   71000    305.66241   -1166.8136    6372.9952     11736.19    1803.2732 
   71100    300.61725   -1171.5573    6427.6249    11678.294     1840.685 
   71200    297.79914   -1171.6071    6394.8275    11585.242    1825.6658 
   71300    302.09983   -1165.1061    6494.4688    11783.262     1860.694 
   71400    305.28667    -1168.917     6447.428    11800.492    1901.1114 
   71500    296.42032   -1164.4226    6395.4955    11563.638    1851.1943 
   71600     297.3966   -1164.8973    6459.4374    11647.962    1848.0966 
   71700    300.30608   -1161.0656    6372.8075     11627.32    1809.1935 
   71800    297.31606   -1164.2651    6380.6303    11568.067    1943.2318 
   71900    299.16188   -1170.5169    6426.7708    11647.388    1884.8915 
   72000    304.21486   -1167.3907     6412.096    11743.789    1871.1276 
   72100    299.83585   -1162.8071    6467.1109    11709.837    1872.9065 
   72200    296.53397   -1171.9392    6345.7942    11508.848    1806.5512 
   72300      303.554   -1166.0767    6459.8529    11778.742    1832.7673 
   72400     297.5082   -1162.1068    6460.0335    11653.733     1804.315 
   72500    305.23002   -1161.3647    6434.4144    11793.821    1839.8783 
   72600    299.55963   -1165.6942    6377.4861    11611.424    1861.3999 
   72700    300.22135   -1162.6053    6459.9207    11711.084    1891.6315 
   72800    293.69661   -1157.4006    6473.5121    11590.489    1894.0855 
   72900    301.84464   -1159.1282    6406.7062    11696.026    1899.8229 
   73000    301.95136   -1162.3539    6392.0736    11680.447    1893.4527 
   73100    297.38977   -1165.8071    6337.9322    11525.401    1921.8052 
   73200    300.63414   -1164.2131    6418.9755    11677.349    1888.3292 
   73300    299.06785    -1156.391    6549.0567    11781.791    1865.3209 
   73400     301.7789   -1165.7748    6455.8443    11737.113    1802.3109 
   73500    298.21435   -1157.9634    6445.6153    11658.544    1853.9521 
   73600    302.07496   -1166.5004    6460.5237    11747.391    1901.7835 
   73700    296.01615   -1155.3208    6422.2882    11590.898    1936.2977 
   73800    302.66929   -1162.7998    6311.4522    11614.717    1879.3285 
   73900    299.23734   -1163.8034    6452.3128    11681.256    1943.9296 
   74000    301.70988   -1164.0698    6400.3258    11681.825    1901.5446 
   74100    302.24394    -1163.623    6445.6133    11738.968    1924.5706 
   74200    300.22712   -1167.9617    6496.0843    11742.014    1925.5468 
   74300    298.31938   -1163.1981     6447.007    11656.945    1884.1363 
   74400    303.17328   -1164.9899     6291.053    11602.895    1830.1059 
   74500     299.9726    -1166.427    6547.7858    11789.813    1904.7284 
   74600    302.75716   -1161.5925    6472.9478    11779.297     1885.023 
   74700    296.83939   -1169.3231    6339.3016    11511.497    1868.3471 
   74800    300.58289    -1163.143    6456.3968    11714.746     1888.937 
   74900    294.72944   -1163.1934    6406.6783    11539.927    1860.0364 
   75000    300.12217   -1163.3442    6348.1087    11596.414    1863.0856 
   75100    303.64407   -1164.9866    6378.5665    11700.469    1876.4276 
   75200    299.41893   -1161.0496     6478.678    11714.254    1914.8301 
   75300    299.71833     -1164.22    6404.9781     11643.78    1870.7116 
   75400    298.19315   -1165.0289    6414.8963    11620.307    1880.1146 
   75500    301.16459   -1162.0897    6463.3476    11735.177    1897.4471 
   75600    296.17041   -1166.5991    6339.4008    11500.028    1806.6249 
   75700    294.79693   -1164.2396     6386.836    11520.481    1891.5158 
   75800    298.34525   -1161.5857    6414.4116    11626.514    1913.6117 
   75900    303.30699    -1158.675    6534.4388    11855.452     1962.409 
   76000    297.89924   -1166.8435    6255.0266    11452.343    1840.3736 
   76100    302.22514   -1162.7472    6432.1005     11725.93    1977.8535 
   76200    294.73481   -1160.6345    6517.1681    11653.091    1929.2016 
   76300    300.59801    -1163.127     6413.096    11671.784    1893.6694 
   76400    297.17068   -1162.7948     6313.312    11499.113    1826.6234 
   76500    299.67837    -1163.352     6423.626    11662.443    1810.7883 
   76600     304.6384   -1163.3595    6485.5806    11830.353    1850.0008 
   76700    299.31424    -1158.678    6427.7991    11663.511    1812.2156 
   76800    302.49673   -1163.3783    6410.8586    11709.859    1817.4782 
   76900    296.42227   -1162.0331    6419.4347    11590.009    1779.8924 
   77000    297.89494   -1163.3896    6407.4975    11608.176    1809.1591 
   77100    295.02388   -1167.6527    6429.0432    11564.123    1869.4823 
   77200    299.41243   -1161.3139    6383.4529    11618.626    1787.4102 
   77300    300.34364   -1158.9342    6430.1908    11687.638    1925.4881 
   77400     299.0181   -1157.4668    6407.1727    11637.769    1889.5545 
   77500    298.82698   -1163.6916    6436.2618     11656.55    1827.6096 
   77600    301.55399   -1160.9778    6583.5668    11864.827    1899.3884 
   77700    300.13231     -1153.74    6446.0215    11704.148    1922.7431 
   77800    301.79773   -1161.8087    6300.8665    11586.503    1803.8316 
   77900    296.25656   -1157.6573    6408.5545    11579.964    1858.8405 
   78000    298.39889   -1160.0555    6443.8444    11658.623    1861.9966 
   78100    304.13729   -1162.0873    6482.0507     11817.39    1820.6078 
   78200    298.18889   -1163.5323    6470.6148    11677.431    1903.0108 
   78300    306.66684   -1158.5949    6232.2551    11625.127    1845.1946 
   78400    300.88875   -1154.3035    6360.5323    11634.255    1822.3339 
   78500    295.62034    -1152.236    6496.1805    11659.419    1815.8308 
   78600    302.30047   -1150.9969    6571.1394    11878.328     1909.742 
   78700    297.46334   -1151.1498    6361.6563    11565.354    1865.0965 
   78800    302.06833   -1156.6925    6296.4685    11593.003    1816.9666 
   78900    298.70878   -1160.6501    6503.8054     11724.61    1981.5723 
   79000    301.60997   -1161.1628    6374.5038    11656.775    1847.4467 
   79100    298.53135   -1156.3834    6497.0794     11718.36    1888.0425 
   79200     300.8052   -1152.8104    6420.8611    11694.292    1902.8777 
   79300     301.0254    -1158.776    6403.7365    11675.906    1903.5634 
   79400    297.28556   -1160.7228     6315.347    11505.674    1839.4732 
   79500    305.70851    -1158.504    6495.1501    11867.639    1927.1776 
   79600     300.3368   -1161.5903    6558.3105    11812.955    1938.1846 
   79700    297.70382   -1160.4973    6450.6309    11650.119    1929.3151 
   79800    296.16474   -1160.4351     6397.751    11564.421    1912.0044 
   79900    300.33503   -1167.0761    6414.0524    11663.173    1940.5928 
   80000    300.63844   -1170.3193    6369.8353    11622.195    1822.7053 
   80100    299.69267   -1158.2587    6435.2301    11679.446    1894.7635 
   80200    294.19886   -1164.3841    6389.8626    11510.586    1945.6724 
   80300     301.7809   -1161.2358    6429.4731    11715.323    1890.9464 
   80400    299.97607   -1165.2228    6464.9533    11708.259     1930.507 
   80500    299.49737    -1167.097    6384.3662    11615.571      1976.04 
   80600    300.46578   -1165.7243    6358.7538     11612.02    1904.2806 
   80700    298.89702   -1168.2583    6453.4547    11670.673    1905.4953 
   80800    303.00642   -1171.9537    6448.6602    11749.974    1913.0048 
   80900    298.75507   -1171.6826    6416.7336    11627.495    1784.3411 
   81000    299.13053   -1168.8165    6364.5622     11586.21    1791.1509 
   81100    303.62754   -1164.0636    6365.3708    11687.844    1912.5276 
   81200    298.56604   -1163.3456    6513.9356    11728.995    1921.7754 
   81300    299.50705   -1162.9798    6482.5776    11718.106    1931.8128 
   81400    300.82462   -1153.9284    6297.9553    11570.683      1945.52 
   81500    299.47742   -1162.9872    6411.7309    11646.619    1947.2489 
   81600     298.0444   -1165.3595     6448.229    11650.131    1903.4132 
   81700    304.63084   -1164.9324    6453.9772    11797.015    1907.6753 
   81800    301.38317   -1163.4183    6447.4387    11722.609    1928.8538 
   81900    301.10355   -1161.7756    6439.8227    11710.662    1909.6861 
   82000    294.41017   -1163.5385    6522.9369     11649.02    1899.3242 
   82100    300.39288   -1164.9812    6425.1419    11677.594    1910.3269 
   82200    296.05803    -1157.892    6344.3797    11511.313    1905.0613 
   82300    301.61243   -1156.5988      6355.76    11642.648    1861.3726 
   82400    303.23386   -1157.6725    6381.3143    11701.768    1870.3225 
   82500    297.90064   -1160.3163    6398.5983    11602.472     1883.756 
   82600    299.00438   -1152.1045    6552.9891    11788.654     1947.164 
   82700    302.62118   -1161.1297    6333.2729     11637.18    1867.7738 
   82800    300.95864   -1163.3153    6319.1233    11585.328    1816.4404 
   82900    305.77176   -1161.6077     6466.979    11837.716     1826.482 
   83000    303.89878   -1157.1428     6564.223    11899.411    1923.6398 
   83100    296.93199   -1162.5835    6456.2218    11637.135    1900.0921 
   83200    301.20883    -1156.507    6359.5138    11637.871     1889.883 
   83300    299.00569   -1158.4917    6436.4008    11665.707    1969.2223 
   83400    304.58565   -1159.3104    6353.1839    11700.879     1888.775 
   83500    299.16503   -1169.8827    6437.2427    11658.562    1865.9328 
   83600    300.93898    -1164.445    6464.5468    11729.201     1903.301 
   83700    296.92734   -1157.7224    6499.3587    11685.033    1888.4578 
   83800    298.26656   -1168.8224    6441.3646     11644.55    1862.5179 
   83900    300.96618   -1167.3936    6350.8587    11613.146    1913.6304 
   84000    302.16462   -1169.9147    6415.8369    11701.206     1975.227 
   84100    297.15413    -1165.023    6428.7388    11611.958    1943.5647 
   84200    302.40051   -1163.6167    6484.8737     11781.58    2019.5759 
   84300    299.82854   -1160.4783    6372.5446    11617.443    1913.3956 
   84400    296.65984   -1160.9415    6412.7321    11589.473    1944.1912 
   84500    300.01603   -1166.9686    6398.6568     11641.07     1909.058 
   84600    296.45193   -1163.1462     6403.878    11573.972    1900.6856 
   84700    299.50005   -1170.4844    6423.4624    11651.337    1951.7322 
   84800    300.14862   -1164.3926    6424.5291    11672.351    1894.5783 
   84900    296.28419   -1161.8912    6411.3754    11579.141    1865.8845 
   85000    299.06456   -1164.1612    6392.6136    11617.508    1894.4701 
   85100    297.68151   -1163.5791    6308.2464    11504.176    1877.9405 
   85200    304.31781   -1161.6992    6436.8832    11776.467    1973.9961 
   85300    293.89009   -1165.4498    6392.0112    11505.072    1908.4219 
   85400    297.23355   -1165.4532    6454.4398    11638.925    1915.3147 
   85500    302.18183    -1160.942    6475.2486    11769.958    1974.0279 
   85600    304.24353   -1160.5331    6382.6279    11721.791    1910.3799 
   85700    299.84563   -1161.7068    6423.1674    11667.202    1878.3651 
   85800    302.58645   -1162.2518    6518.1697    11820.213    1927.2036 
   85900    297.77147   -1165.9317     6410.797    11606.296    1947.7146 
   86000    302.25589   -1161.7515    6430.9701    11726.452    1977.9811 
   86100    297.67871   -1162.2721    6415.0726    11612.249    1927.9724 
   86200    300.20197   -1159.4715    6472.7889    11726.672    1967.5235 
   86300    304.03466    -1159.256    6350.4101    11686.388     1880.319 
   86400    302.44318   -1163.6458    6394.0378    11691.627    1954.6277 
   86500    296.28259   -1163.2162    6394.7629     11561.17    1968.2138 
   86600    300.83347   -1156.5231    6485.3362    11755.659    1937.7347 
   86700    302.23446    -1166.185    6465.0634    11755.654     1867.624 
   86800    298.80877   -1165.4152    6430.0348    11648.211    1886.2459 
   86900     297.6506   -1163.2696    6366.9206    11562.499    1915.6108 
   87000    301.12447   -1165.5487    6344.3678    11611.881      1905.12 
   87100    293.48072   -1170.7213    6348.6133    11447.657      1953.38 
   87200    303.36016   -1162.4066    6465.5885    11784.006    2014.4727 
   87300    301.32774   -1161.0525    6578.4182     11854.77    1917.7517 
   87400    301.76844   -1168.8315    6447.7109    11725.699    1909.8941 
   87500    297.25898   -1167.7138    6387.9283    11570.697    1941.9927 
   87600    301.38258   -1165.2993    6429.3024    11702.579    1906.8405 
   87700    301.73562   -1166.8512    6427.3169    11706.584    1932.4375 
   87800      295.887   -1170.8878    6431.7492    11582.033    1881.2509 
   87900    302.38586   -1164.8155    6544.9233    11840.118    1941.3418 
   88000    300.68277   -1166.5159    6428.9279    11686.038    1900.9055 
   88100    299.74935   -1170.3236    6413.7433    11647.105      1916.57 
   88200    293.20041   -1166.5839    6317.6124    11414.805    1868.5968 
   88300    305.66314   -1168.7608    6387.8656    11749.129    1951.5164 
   88400    305.18057   -1168.8971    6423.1473    11773.965    1936.6007 
   88500    297.99511   -1166.7374    6515.1046    11714.576    1972.2297 
   88600    303.10735    -1166.418    6313.5242     11622.53    1889.2629 
   88700    302.65358   -1169.8082    6426.2529    11722.174    1967.3942 
   88800    295.81547   -1164.4052    6430.9978    11586.236    1931.9778 
   88900    302.13219   -1167.8512    6468.2558    11754.995    1908.7488 
   89000    306.88978   -1167.8446    6416.8775    11805.262     1882.833 
   89100    297.02988   -1160.8576    6462.6186    11647.349    1892.5192 
   89200    302.74202   -1165.2589    6338.4059    11640.766    1830.0895 
   89300     298.8966    -1162.305    6414.0403    11637.203    1834.1152 
   89400    300.38004   -1163.7452    6593.2549    11846.668     1942.325 
   89500    302.98864   -1165.0513    6403.9908    11711.827    1875.2962 
   89600    297.64511   -1167.4218    6456.3693    11647.679    1959.5615 
   89700    299.15687   -1163.8156    6389.2744    11616.486    1887.0347 
   89800    301.03167   -1158.1824    6412.0425     11684.94    1870.3101 
   89900    293.03506   -1160.6056    6425.9803    11525.619    1907.6966 
   90000     307.1705   -1159.9538    6442.2984    11844.571    1998.3364 
   90100    298.41508   -1161.3563    6360.2965    11574.121    1984.3641 
   90200    298.86785   -1163.2495     6452.741    11674.344    1989.7229 
   90300     300.4541     -1169.68    6424.3054    11673.366    1945.2095 
   90400     304.1635   -1166.7616    6514.7266    11845.952    1955.7438 
   90500    297.87658    -1163.989    6355.9522    11555.639    1842.9518 
   90600    293.67325    -1169.417    6315.3174    11419.779     1872.766 
   90700    300.37067   -1166.7531    6407.6101    11657.815    1892.1218 
   90800    299.42056   -1163.3322    6479.0087    11712.337    1839.2469 
   90900    302.38494   -1163.3456    6536.9038    11833.549    1908.8493 
   91000    296.35159   -1167.2797    6429.9064    11593.724    1856.6174 
   91100    302.78562   -1161.4167    6382.4587    11689.592    1885.6587 
   91200    298.71647   -1162.1137    6417.8819    11637.387    1962.9378 
   91300    303.66114   -1167.2117    6414.7715    11734.814    1920.4626 
   91400    299.87572   -1169.2418    6476.7941    11713.937    1910.7319 
   91500    304.69049   -1166.5256    6518.4132    11861.133    1954.5747 
   91600     297.5207   -1165.5129    6301.9069    11492.467    1859.5989 
   91700    297.96435   -1169.0527    6404.8566    11601.355    1920.4123 
   91800    299.54121   -1163.5294    6507.7505    11743.459    1919.6928 
   91900    299.14484   -1164.8033    6441.7582    11667.725    1855.8676 
   92000    299.26273   -1164.7169    6399.0676     11627.64    1866.9652 
   92100    304.41925   -1162.4821    6380.1036    11721.072    1825.9776 
   92200    297.13789   -1168.9401    6495.1357    11674.091    1905.1624 
   92300    301.05308   -1161.4497    6408.1862    11678.274    1897.2637 
   92400    306.24432   -1166.7592    6428.8443    11804.525    1918.1906 
   92500    298.06732   -1159.8603    6447.8661    11655.757    1939.2205 
   92600    299.84102   -1168.8008     6377.598     11614.44    1891.2829 
   92700    301.89508   -1164.5986    6417.3026    11702.229    1901.8245 
   92800    305.04749   -1164.0699    6532.2109    11885.012    1968.3904 
   92900    304.26518   -1170.2753    6405.2534    11735.137    2004.5889 
   93000    296.15218   -1165.6782    6269.2227    11430.381    1864.4631 
   93100    302.31847   -1162.0898    6492.5688    11789.049    1970.7546 
   93200    297.81395    -1165.097    6380.2391     11577.48    1917.4144 
   93300    302.43806   -1164.2712     6556.879    11853.733    1956.3293 
   93400     299.6461   -1166.3181    6327.7622    11562.923    1863.5254 
   93500    297.07856   -1165.3145    6406.0074    11587.321    1917.2568 
   93600    298.71938   -1163.6335    6444.6183    11662.666    1847.2388 
   93700    305.95005   -1166.8721    6453.0618    11822.343    1904.7399 
   93800    298.26137   -1167.7767    6416.7862    11620.906    1916.6424 
   93900    304.59534    -1165.411    6432.6611    11774.462    1949.8804 
   94000    298.51408   -1172.1757    6439.9928    11645.112    1906.0732 
   94100     304.5245   -1166.7786    6397.9792    11736.899    1954.8084 
   94200    301.83798   -1164.1308     6390.474    11674.648    1901.9884 
   94300    300.57615   -1170.9453    6381.3552    11631.758    1898.0285 
   94400    296.73027   -1162.5622    6599.1517    11775.776    2026.2495 
   94500    301.86326   -1170.1394     6288.639    11567.345    1869.9599 
   94600    300.76194   -1163.9904     6350.746    11612.073    1910.5548 
   94700    297.14313    -1165.626    6528.2185      11710.6    1993.0734 
   94800    298.74752   -1165.5086    6397.4572    11614.231    1843.5316 
   94900    299.99379   -1166.8608    6300.4402    11542.486    1794.9944 
   95000    297.00946   -1164.5408    6558.5666    11739.177    1943.1194 
   95100    299.64212   -1168.5767    6342.4254    11575.243    1851.7118 
   95200    298.49733   -1167.6059    6303.1074    11512.439    1858.8302 
   95300    297.20326   -1163.6307    6482.7505    11668.411     1914.317 
   95400    298.21659   -1161.4101    6459.3185    11668.848    1886.0159 
   95500    302.45533   -1159.9687    6375.2372    11676.762    1875.0195 
   95600    294.76741   -1163.7897    6404.6292    11538.093    1903.5358 
   95700    296.40028    -1160.224    6532.3904    11704.304    1955.4277 
   95800    298.89361    -1161.571    6323.0626    11546.895    1861.6293 
   95900    301.07282    -1164.871    6389.1767    11656.264    1948.9215 
   96000    299.42204    -1159.714    6467.3065    11704.285    1938.6115 
   96100    305.97673   -1161.4973    6436.3524    11811.578    1916.7967 
   96200     298.4664   -1158.8148    6408.4753    11625.937    1861.8618 
   96300    300.88281   -1157.6148    6465.1402    11735.425    1939.0531 
   96400    302.97528   -1163.6737    6348.1874    11657.116    1880.0414 
   96500    298.37764   -1168.0257    6407.0903    11613.445    1863.9608 
   96600    303.52171   -1164.4955    6500.1797     11819.96    1890.0901 
   96700    299.08216    -1166.519    6530.9161    11753.828    1937.3867 
   96800    300.53058   -1167.6932    6381.4555    11634.137    1857.6001 
   96900    302.17131    -1162.168    6395.2391    11688.497    1944.6198 
   97000    299.31431   -1158.4594    6430.4254    11666.357    1932.3978 
   97100    298.62325   -1165.1809    6451.8271    11666.274    1879.0546 
   97200    301.03511   -1158.5524    6290.1965    11562.797     1875.839 
   97300    301.31175   -1165.8064    6402.4417    11673.698    1949.4578 
   97400    300.06435   -1163.6088    6421.8973    11668.703    1902.1598 
   97500     298.7267   -1162.2747    6443.8412    11663.404    1835.5769 
   97600     302.1217    -1169.602    6492.0696    11776.834    1927.2343 
   97700     299.8578   -1169.8794    6442.7005    11678.823    1837.7986 
   97800    299.21959   -1174.4187    6384.0997    11602.048    1799.8562 
   97900     296.1569   -1169.8617    6356.7307    11513.807    1874.7544 
   98000    304.54407   -1156.6787    6440.4477    11789.886    1918.9453 
   98100    298.00236   -1158.8637    6466.2414    11673.741    1931.1017 
   98200    302.86886    -1161.151    6392.0678    11701.245    1967.5357 
   98300    297.40044   -1156.2245    6371.4517    11568.731    1938.6548 
   98400    305.30681   -1166.2613    6416.5917    11772.742    1964.4059 
   98500    298.02867   -1167.7726    6439.4436    11638.596    1930.5245 
   98600    301.52282   -1160.1528    6467.4431    11748.863    1910.5131 
   98700     301.1318   -1165.5675    6414.5739    11682.225     1877.894 
   98800    304.41918   -1164.9071    6388.0765    11726.618    1937.2562 
   98900    298.12958   -1163.1061     6347.987    11553.962    1856.8375 
   99000    301.11713   -1161.0172    6435.6303    11707.519    1888.6163 
   99100    299.66427   -1155.2384    6466.0681    11712.697    1923.1371 
   99200    301.52725   -1161.7718     6445.277    11725.172    1946.9223 
   99300    301.25694   -1158.5019    6392.7902     11670.18    1888.8868 
   99400    302.53673   -1162.1474    6406.8371    11707.923    1865.1316 
   99500    295.83991    -1164.886    6453.8459    11609.126    1864.5831 
   99600    303.76868   -1164.7043    6527.0974    11851.945    1859.6221 
   99700    294.43205   -1162.1706    6443.6662    11571.585    1840.9481 
   99800    301.36456   -1162.9011    6396.6841    11671.974    1888.9308 
   99900    302.51137    -1168.383    6429.2333    11723.541    1863.9445 
  100000    300.46403   -1168.2208    6403.9766    11654.709    1908.5021 
  100100    299.06599   -1164.1017    6416.7736    11641.758    1898.7412 
  100200    301.34225   -1163.7293    6390.2697    11664.255    1909.6618 
  100300    297.96238   -1161.5158    6370.3699    11574.363    1907.2431 
  100400    299.72968   -1160.0146    6412.1674    11655.418    1958.9668 
  100500    303.04693   -1169.8411    6290.4898    11594.781    1810.0494 
  100600    303.16396   -1167.9994    6475.1278    11783.761     1850.346 
  100700    292.68552   -1168.2299    6483.6402    11568.187     1864.607 
  100800    298.83865   -1171.8524    6378.2042    11590.581    1850.4494 
  100900    294.84206   -1175.2281    6399.1138    11522.734    1897.1097 
  101000    305.40013   -1168.7656    6505.1285    11860.768    1920.0029 
  101100    301.50552   -1166.6857    6376.8376    11651.355    1836.2505 
  101200    295.50011   -1164.1231    6472.3686    11621.152    1911.6476 
  101300    300.47137   -1162.1661    6394.9426    11651.886    1928.0895 
  101400    301.66645   -1159.7872    6404.6005    11689.454    1928.2685 
  101500    298.61925   -1160.8188    6394.8858    11613.609    1913.6987 
  101600    299.90805   -1161.8442    6447.8072    11693.038    1883.8203 
  101700    304.84605   -1159.2162    6461.8252    11815.177    1876.2205 
  101800     297.4764   -1166.5754    6411.7415    11600.293    1847.6717 
  101900    301.02521   -1166.2589    6422.9206    11687.603    1905.8304 
  102000    299.12894   -1155.6893    6431.9094    11666.651    1930.5353 
  102100    300.99403   -1154.4427    6466.3625    11742.195    1962.2621 
  102200    305.54527   -1156.4176    6366.7012     11737.79    1909.1827 
  102300    301.87555   -1151.6339    6389.4627    11686.937    1990.0844 
  102400    298.83321   -1155.1557    6427.8606    11656.818      1888.74 
  102500    302.36217   -1156.1292    6415.3154     11718.69    1884.3127 
  102600    301.07323   -1157.8691    6405.9329    11680.031    1923.9419 
  102700    298.08208   -1159.6279    6474.4381    11682.877    1898.1383 
  102800    305.13214   -1160.7282    6521.2895    11879.241    1886.5189 
  102900    297.31847    -1157.522    6419.6141    11613.845    1887.3697 
  103000    303.03267    -1154.937    6406.4888     11725.38    1903.0513 
[...]
  588400    296.87345   -1158.5288    6395.3792    11579.096     1862.761 
  588500    297.83792   -1159.5639    6375.8571    11579.143    1863.2966 
  588600    296.51825   -1159.8673    6404.2935    11579.084    1876.9214 
  588700    297.01667   -1156.8609    6390.5841    11579.029    1882.0569 
  588800    300.32696   -1158.3538    6321.4027    11579.074    1867.3092 
  588900    296.75733   -1164.4002    6403.7138    11579.079    1818.2477 
  589000    294.11936   -1158.2253    6453.8859     11579.07    1825.7917 
  589100    302.12332   -1162.6422    6287.2431    11579.002    1786.5424 
  589200    298.02124   -1163.7752    6376.0941    11579.085     1898.776 
  589300    297.77894   -1162.2052    6379.7723    11579.157    1877.9308 
  589400    297.20731   -1167.2136    6396.8744    11579.039    1881.8763 
  589500    296.36557   -1163.9769    6411.6625    11579.081    1857.1582 
  589600     297.6938   -1155.9046    6375.1821    11579.049    1865.8933 
  589700    297.44578   -1161.5895    6386.2455    11579.129    1949.2855 
  589800    300.87454   -1159.9614    6311.2475    11579.009    1906.6876 
  589900    298.82829   -1160.1776    6355.2069    11579.037    1850.9675 
  590000    298.78855   -1163.6503    6359.6125    11579.121     1827.111 
  590100    299.55428   -1162.8487    6342.3878    11579.057    1828.3929 
  590200    298.24363   -1161.2953    6368.9202    11579.142    1819.0744 
  590300    295.63869   -1164.8913    6428.1747     11579.15    1876.2168 
  590400    295.48907   -1161.2968    6427.8985    11579.272    1966.8383 
  590500    299.98475   -1160.7853    6331.2362    11579.165    1889.5861 
  590600    297.76081   -1164.6152    6382.5192    11579.107     1888.717 
  590700    296.59747   -1163.7441    6406.4948    11579.101    1912.9465 
  590800    299.26387   -1160.5381    6346.3412    11579.117    1874.7016 
  590900    296.31112   -1162.8793    6411.7558    11579.109     1947.066 
  591000    299.24648   -1158.9699    6345.1697    11579.142    1930.1669 
  591100    297.55767   -1161.3616    6383.5069    11579.008    1920.0937 
  591200    296.73529   -1159.5956     6399.368    11579.067    1885.3224 
  591300    297.79563   -1162.8404     6380.031    11579.137    1862.7457 
  591400    297.82866   -1163.7819     6380.269    11579.139    1876.3151 
  591500    296.51241   -1161.9194    6406.5416    11579.155    1874.0117 
  591600      297.939   -1158.4678    6372.6746    11579.216    1894.6161 
  591700    298.82536   -1157.6573    6352.8654    11579.153     1927.299 
  591800    295.66469   -1159.2668    6422.0069    11579.162    1942.4444 
  591900    300.44293   -1163.6608    6324.3534    11579.195    1974.4477 
  592000    295.53712   -1159.4186    6424.9527    11579.231    1976.6021 
  592100    298.65963   -1163.9841    6362.8518    11579.272    1906.7245 
  592200    298.87134   -1167.5242    6361.8931    11579.296    1941.9071 
  592300    301.08994   -1170.4091    6317.3564    11579.272    1926.1102 
  592400    295.06118    -1166.013    6441.8508    11579.367    1895.5282 
  592500    299.67617   -1166.6345    6343.8132      11579.3    1791.7243 
  592600    298.42776    -1159.104     6363.016    11579.363    1861.5265 
  592700    297.56153   -1160.2358     6382.584    11579.294    1902.4941 
  592800    301.66047   -1169.7767     6304.612    11579.348    1896.0532 
  592900    294.44006   -1166.5103    6455.6688    11579.419    1897.0662 
  593000    297.52848   -1170.7273    6393.9097    11579.422    1919.3549 
  593100    297.99276   -1172.1855    6385.4209    11579.393    1933.9856 
  593200    298.83379   -1171.6018    6366.8287    11579.352    1925.7499 
  593300     301.1141   -1167.4185    6313.8336    11579.256      1894.04 
  593400    293.62938   -1161.2562    6467.6219    11579.307    1958.7885 
  593500    300.81122   -1157.9077    6310.7094    11579.172    1824.7954 
  593600    298.73245   -1163.6691    6360.8917    11579.183    1891.6541 
  593700    298.49611   -1168.6719    6371.0206     11579.26    1872.0739 
  593800     300.8726   -1165.3132    6316.8099    11579.178    1786.9143 
  593900    299.45979   -1162.4961    6344.1484    11579.151    1847.6412 
  594000    295.38897    -1164.469    6432.9755    11579.039    1883.4474 
  594100    294.54466   -1159.9982    6446.5049    11579.001    1816.5956 
  594200    298.87026   -1159.2205    6353.3346    11579.019    1824.4747 
  594300    298.35911   -1154.9629    6360.0162    11579.038    1839.3967 
  594400    301.69821   -1155.1961    6288.8834    11579.007     1794.126 
  594500    295.77688   -1158.3491    6418.5167    11578.987    1874.9168 
  594600    298.10856   -1156.7137     6367.145    11579.063    1898.8072 
  594700     294.5867   -1157.6741    6443.3673    11579.086     1897.832 
  594800    300.04382   -1151.5133    6320.6145    11579.077    1828.2552 
  594900    293.93944   -1154.1623    6453.6904    11579.093     1847.539 
  595000    300.00479    -1154.725    6324.6948    11579.112    1877.6151 
  595100    298.15544   -1158.2951    6367.7891    11579.128    1867.1871 
  595200    296.37942    -1154.549    6402.0306    11579.173    1926.3604 
  595300    301.49144   -1157.5904    6295.9568    11579.268    1941.0846 
  595400    294.52941   -1163.1433    6450.2046     11579.23    1900.2472 
  595500      298.677   -1171.2581    6369.7263    11579.244      1952.04 
  595600    294.90791   -1164.6764    6443.7771    11579.356    1942.6311 
  595700    300.01303   -1166.4414    6336.4897    11579.366    1860.2777 
  595800    296.91032   -1167.7153     6404.175    11579.493    1878.8534 
  595900    299.98042   -1168.9217    6339.7463    11579.446    1907.8128 
  596000    299.92314   -1172.0759    6344.1476     11579.47    1930.5673 
  596100    300.04846    -1161.693    6331.0266    11579.409    1830.1196 
  596200    298.88791   -1168.2339    6362.4721     11579.52    1842.9703 
  596300      296.233    -1168.991    6419.9942    11579.567    1864.8218 
  596400    299.25993   -1175.2137    6361.5722    11579.588    1853.8585 
  596500    298.97645   -1171.2761    6363.5438    11579.441    1867.6753 
  596600    298.72124   -1174.6057    6372.4287    11579.544    1926.6752 
  596700    298.93082   -1171.8407    6365.1376    11579.495    1921.7615 
  596800    298.00536   -1170.6108    6383.5946    11579.411    1857.8457 
  596900    297.33776   -1165.6102     6392.871    11579.426    1910.8227 
  597000    297.14619   -1163.0561    6394.3355    11579.352    1881.8131 
  597100    301.05217   -1166.2292    6314.1555    11579.444    1852.0735 
  597200    296.45303   -1165.9635    6412.0148    11579.315    1923.6487 
  597300    299.73643   -1168.7085    6344.4933    11579.194    1904.8275 
  597400    296.37199   -1158.7647    6406.3779    11579.146    1914.7047 
  597500    297.84663   -1158.1224    6374.2415    11579.155     1900.575 
  597600    297.95909   -1157.3931    6371.0825    11579.128     1878.926 
  597700    298.12614   -1160.0829    6370.1129    11579.038    1847.8534 
  597800    296.81673   -1156.2674    6394.2772    11579.044    1875.5725 
  597900     296.4537   -1157.4499    6403.1865    11579.015    1949.5645 
  598000    296.69271   -1156.0635    6396.7097    11579.031    1972.3239 
  598100     300.1239   -1155.9182    6323.2423    11579.011    1881.9671 
  598200    293.81769   -1150.0597    6452.1277    11579.032    1852.3825 
  598300    301.01513   -1154.5939    6302.8283    11578.961    1868.6211 
  598400    295.54042   -1161.0016    6426.2848    11579.051    1943.0877 
  598500    296.27838   -1158.3745    6407.9587    11579.117    1863.8354 
  598600    297.09376   -1157.2224    6389.3293    11579.059    1863.1476 
  598700    299.47036    -1159.821    6341.2865     11579.19    1934.8232 
  598800    300.58965   -1161.0775    6318.6955    11579.255    1900.9185 
  598900    293.94858   -1163.7693      6463.36    11579.351    1935.7345 
  599000    297.44833   -1165.3167    6390.1501    11579.361    1999.9851 
  599100    299.06694   -1170.7553    6361.0792     11579.43    1925.8029 
  599200    297.96703   -1172.4651     6386.282    11579.425    1892.9526 
  599300    298.24246   -1172.3194    6380.2343    11579.407    1958.4919 
  599400     296.2809   -1174.3241    6424.1808    11579.444    1965.4722 
  599500    299.41697   -1172.7193     6355.589    11579.454    1858.2586 
  599600    299.61965   -1165.7707    6344.2553    11579.399    1855.4408 
  599700    299.33861   -1172.1591    6356.8427    11579.594    1910.6161 
  599800    296.75422    -1171.642    6411.5353    11579.592    1929.6358 
  599900    299.16187   -1179.7636    6368.1695     11579.54    1902.7813 
  600000    298.91334   -1174.3117    6367.9796    11579.493    1824.6903 
Loop time of 281.725 on 8 procs for 300000 steps with 7168 atoms

Pair  time (%) = 138.364 (49.1133)
Bond  time (%) = 81.1217 (28.7947)
Neigh time (%) = 19.4548 (6.90562)
Comm  time (%) = 32.4944 (11.5341)
Outpt time (%) = 0.478203 (0.169741)
Other time (%) = 9.8111 (3.48251)

Nlocal:    896 ave 900 max 893 min
Histogram: 2 1 0 0 0 4 0 0 0 1
Nghost:    2839.88 ave 2845 max 2836 min
Histogram: 1 1 2 0 0 2 0 1 0 1
Neighs:    23680.1 ave 23960 max 23337 min
Histogram: 2 1 0 0 1 0 0 1 0 3

Total # of neighbors = 189441
Ave neighs/atom = 26.4287
Ave special neighs/atom = 157.056
Neighbor list builds = 3031
Dangerous builds = 0
# −−−−−−−−−−−−−− Flux calculation in nve −−−−−−−−−−−−−−−
reset_timestep  0
compute         PE all pe/atom
compute         KE all ke/atom

variable        CX atom (vx*(c_KE+c_PE))
compute         Jcx all reduce sum v_CX

variable        CZ atom (vz*(c_KE+c_PE))
compute         Jcz all reduce sum v_CZ

variable        CY atom (vy*(c_KE+c_PE))
compute         Jcy all reduce sum v_CY

compute         SA all stress/atom virial

variable        VX atom -(c_SA[1]*vx+c_SA[4]*vy+c_SA[5]*vz)*1.4593e-5
compute         Jvx all reduce sum v_VX

variable        VZ atom -(c_SA[3]*vz+c_SA[6]*vy+c_SA[5]*vx)*1.4593e-5
compute         Jvz all reduce sum v_VZ

variable        VY atom -(c_SA[2]*vy+c_SA[6]*vz+c_SA[4]*vx)*1.4593e-5
compute         Jvy all reduce sum v_VY

variable        Jx equal (c_Jcx+c_Jvx)/vol
variable        Jz equal (c_Jcz+c_Jvz)/vol
variable        Jy equal (c_Jcy+c_Jvy)/vol

fix             JJTx all ave/correlate $s $p $d                 v_Jx type auto file J0Jt_tx.dat ave running
fix             JJTx all ave/correlate 5 $p $d                 v_Jx type auto file J0Jt_tx.dat ave running
fix             JJTx all ave/correlate 5 20000 $d                 v_Jx type auto file J0Jt_tx.dat ave running
fix             JJTx all ave/correlate 5 20000 100000                 v_Jx type auto file J0Jt_tx.dat ave running

fix             JJTz all ave/correlate $s $p $d                 v_Jz type auto file J0Jt_tz.dat ave running
fix             JJTz all ave/correlate 5 $p $d                 v_Jz type auto file J0Jt_tz.dat ave running
fix             JJTz all ave/correlate 5 20000 $d                 v_Jz type auto file J0Jt_tz.dat ave running
fix             JJTz all ave/correlate 5 20000 100000                 v_Jz type auto file J0Jt_tz.dat ave running

fix             JJTy all ave/correlate $s $p $d                 v_Jy type auto file J0Jt_ty.dat ave running
fix             JJTy all ave/correlate 5 $p $d                 v_Jy type auto file J0Jt_ty.dat ave running
fix             JJTy all ave/correlate 5 20000 $d                 v_Jy type auto file J0Jt_ty.dat ave running
fix             JJTy all ave/correlate 5 20000 100000                 v_Jy type auto file J0Jt_ty.dat ave running

run             1000000
Memory usage per processor = 13.8919 Mbytes
Step Temp E_pair E_mol TotEng Press 
       0    298.91334   -1174.3117    6367.9796    11579.493    1824.6903 
     100    296.66023    -1170.734    6412.5633     11579.52    1877.3213 
     200    302.46393   -1170.9111    6288.7058    11579.472    1873.7682 
     300    293.49936   -1173.0818    6482.3121    11579.394    1912.3807 
     400    297.25673   -1166.0964    6395.0453    11579.383    1831.4703 
     500    296.21738    -1170.498    6421.6948    11579.427    1883.7044 
     600    301.43149   -1168.3166     6308.083    11579.388    1857.4877 
     700    295.48288   -1166.3978    6433.1635    11579.304    1907.2902 
     800    301.50979   -1164.2003    6302.1838    11579.278    1907.2193 
     900    295.58847   -1159.8684    6424.3185    11579.244     1932.207 
    1000    298.54524   -1160.0844     6361.356    11579.233    1904.8098 
    1100    296.33945    -1158.435    6406.8519    11579.255     1901.423 
    1200    297.46547   -1151.5274    6375.7421    11579.108    1907.7145 
    1300    299.20558   -1157.6122    6344.6357    11579.092    1928.3334 
    1400      294.254    -1150.427    6443.1844    11579.043    1956.0478 
    1500     302.1704   -1156.5202    6280.1463    11579.033    1905.2653 
    1600    298.78936   -1153.9108    6349.8411    11579.106    1923.1796 
    1700    298.79372   -1164.0975    6359.9496    11579.121    1904.9686 
    1800    294.42333   -1160.1202    6449.3203    11579.103    1862.5552 
    1900    299.50972   -1159.8345    6340.4423    11579.173    1817.9517 
    2000    295.43202    -1158.233    6425.9681    11579.187    1805.3926 
    2100    301.37279   -1159.9748     6300.811    11579.203    1825.0908 
    2200      299.325   -1156.4873    6341.0087    11579.141    1856.0988 
    2300    294.62637    -1155.349     6440.256    11579.147    1884.9913 
    2400    302.98819   -1162.5311    6268.8987    11579.245    1879.7912 
    2500    299.27039   -1166.3844    6352.2924    11579.361    1888.4396 
    2600    295.85365   -1169.2519     6428.169    11579.377    1957.8074 
    2700    300.11781    -1176.957    6344.7684    11579.368    1947.8768 
    2800    298.51695    -1172.609    6374.7265    11579.474    1860.0169 
    2900    299.94733    -1164.674    6336.2126    11579.453    1834.9116 
    3000    294.65861   -1162.9759    6447.5449    11579.498    1949.0024 
    3100    300.58307   -1170.0293    6328.0447    11579.511    1883.8333 
    3200    301.26684   -1172.8755    6316.2481    11579.476    1862.7747 
    3300    294.71105   -1165.0173    6448.4209    11579.453    1886.7714 
    3400    303.75952    -1166.572    6256.7049    11579.489     1830.993 
    3500    295.30807   -1164.5391    6435.2024    11579.467    1867.7173 
    3600    298.51438   -1171.1251    6373.1808    11579.357    1949.7112 
    3700    294.34196   -1166.2242     6457.448    11579.388    1965.5521 
    3800    303.66335   -1167.4721    6259.5052    11579.335    1825.5319 
    3900    295.90615   -1166.8181    6424.6062    11579.369    1906.8693 
    4000    298.05188   -1166.4186    6378.2309    11579.234    1836.4687 
    4100    302.35349   -1164.8707    6284.7878    11579.236    1812.8185 
    4200    295.48339   -1164.8081    6431.4219    11579.163    1852.6362 
    4300    301.87612   -1159.6429    6289.7017    11579.179    1829.8101 
    4400    296.64013   -1153.9962    6395.8165    11579.081    1862.1817 
    4500    296.74708   -1157.5342    6397.1074    11579.119    1861.1802 
    4600    305.11096   -1160.9744      6221.88    11579.133    1821.4088 
    4700    296.00085    -1160.189    6415.6703    11579.085    1925.2275 
    4800    296.63486   -1154.7535    6396.6626    11579.058    1822.4157 
    4900    299.72352   -1158.6781    6334.7086    11579.164      1827.49 
    5000    294.69502   -1156.8128    6440.1942    11579.088     1845.411 
    5100    300.10371   -1163.2842    6331.1844    11579.156    1807.9484 
    5200    295.44948   -1161.5815    6428.9753    11579.219    1869.8833 
    5300    299.54255   -1160.2387    6340.1463    11579.175    1914.5291 
    5400     298.4094   -1160.0462    6364.1144    11579.127    1895.8418 
    5500    297.27065   -1160.1696    6388.6132    11579.175    1891.3602 
    5600    298.79596   -1164.3536    6360.3124    11579.276    1892.5893 
    5700    296.06988   -1164.0798    6418.2881    11579.287     1834.948 
    5800    299.36638   -1168.0235    6351.8451    11579.325    1847.4787 
    5900    299.58151   -1171.1839    6350.4991    11579.415    1869.3995 
    6000    296.44407   -1170.8655    6417.1379    11579.345    1874.7628 
    6100    302.39384   -1177.0475    6296.3514    11579.484    1794.8355 
    6200    296.80685   -1173.4908    6412.2178     11579.55    1828.6594 
    6300    298.54527    -1168.875    6370.3724    11579.459    1815.0203 
    6400     295.0076   -1162.1788    6439.2443     11579.45    1808.7502 
    6500    300.02467   -1164.0615    6333.9828    11579.488    1863.1149 
    6600    296.63631   -1169.0963    6411.4584    11579.542    1935.8787 
    6700    297.72774   -1166.8389    6385.7375    11579.395    1869.9335 
    6800    296.48234   -1166.8802    6412.4382    11579.448    1851.9184 
    6900     297.6994   -1177.9953    6397.5155    11579.411    1877.0623 
    7000    297.08171   -1174.0504    6406.7493    11579.394    1917.4198 
    7100    299.68408   -1166.6259    6343.6411    11579.306    1881.9924 
    7200    297.76215   -1162.0127    6380.1014     11579.32    1866.3481 
    7300    299.79035   -1161.3063    6336.0308    11579.285    1825.5491 
    7400    294.43003   -1160.1326    6449.2492    11579.162    1892.7714 
    7500    298.59652   -1159.8103    6359.8362    11579.082    1864.8707 
    7600    300.30771    -1155.681     6319.197    11579.129    1870.8035 
    7700    298.64103   -1158.1449    6357.2311    11579.094    1865.0608 
    7800    294.06641   -1159.1703    6455.9042    11579.012    1844.7127 
    7900    296.37364   -1153.2868    6400.7356    11579.017     1845.546 
    8000    296.33518   -1155.4972    6403.7915    11579.041    1893.4218 
    8100     297.3282   -1159.7894    6386.9045    11579.076    1947.2596 
    8200    300.53337   -1158.9852    6317.5641    11579.013    1889.7354 
    8300    294.98946   -1153.1979    6430.2989    11579.098    1932.2024 
    8400    294.68906   -1157.9374    6441.4842    11579.126    1972.4055 
    8500    301.72876   -1158.9349    6292.0729     11579.11    1851.5307 
    8600    297.36764   -1155.8812     6382.212    11579.134     1900.577 
    8700    299.39401   -1154.2426       6337.3    11579.151    1913.7294 
    8800    298.23374   -1154.0428     6361.926    11579.189    1892.8633 
    8900    296.62204   -1155.4629    6397.8581     11579.27    1874.6027 
    9000    297.82395   -1159.6226     6376.325    11579.254    1839.0938 
    9100    300.03438   -1169.9944    6339.6081    11579.388    1862.9929 
    9200    295.23018   -1168.3585    6440.6149    11579.396    1818.9899 
    9300    296.46788     -1159.22    6404.9939    11579.355    1811.0732 
    9400    300.07889   -1167.3426    6335.9676     11579.35    1869.3995 
    9500    297.63284   -1163.3116    6384.1462    11579.304    1892.5863 
    9600    297.71878    -1166.386    6385.4233    11579.342    1904.5498 
    9700    297.64931   -1159.1715    6379.6723    11579.322    1905.4856 
    9800    302.49658   -1163.0286    6280.0272    11579.374    1951.6749 
    9900    296.95258   -1167.0386    6402.5202    11579.418    1944.0198 
   10000    296.58703   -1170.1939    6413.4185    11579.351    1919.1757 
Loop time of 1425.68 on 8 procs for 1000000 steps with 7168 atoms

Pair  time (%) = 567.005 (39.7708)
Bond  time (%) = 297.888 (20.8945)
Neigh time (%) = 65.1051 (4.5666)
Comm  time (%) = 116.019 (8.13783)
Outpt time (%) = 0.00410366 (0.000287839)
Other time (%) = 379.659 (26.63)

Nlocal:    896 ave 899 max 893 min
Histogram: 1 2 0 0 0 1 2 0 1 1
Nghost:    2842.5 ave 2848 max 2838 min
Histogram: 1 1 0 1 1 0 3 0 0 1
Neighs:    23620.4 ave 23919 max 23321 min
Histogram: 1 0 3 0 0 0 1 1 1 1

Total # of neighbors = 188963
Ave neighs/atom = 26.362
Ave special neighs/atom = 157.056
Neighbor list builds = 10112
Dangerous builds = 0
